# vtk DataFile Version 3.0
TPZGeoMesh VTK Visualization
ASCII

DATASET UNSTRUCTURED_GRID
POINTS 8 float
-1 -1 0 
-0.5 -1 0 
0.5 1 0 
-1 1 0 
-0.5 -1 0 
1 -1 0 
1 1 0 
0.5 1 0 

CELLS 2 10
4 0 1 2 3
4 4 5 6 7

CELL_TYPES 2
9
9

CELL_DATA 2
FIELD FieldData 2
material 1 2 int
0
0
elIndex 1 2 int
1
2
