# vtk DataFile Version 3.0
TPZGeoMesh VTK Visualization
ASCII

DATASET UNSTRUCTURED_GRID
POINTS 80 float
-0.5 -1 0 
0.25 -1 0 
0.5 0 0 
0 0 0 
0.25 -1 0 
1 -1 0 
1 0 0 
0.5 0 0 
0.5 0 0 
1 0 0 
1 1 0 
0.75 1 0 
0 0 0 
0.5 0 0 
0.75 1 0 
0.5 1 0 
-1 -1 0 
-0.875 -1 0 
-0.8125 -0.5 0 
-1 -0.5 0 
-0.875 -1 0 
-0.75 -1 0 
-0.625 -0.5 0 
-0.8125 -0.5 0 
-0.8125 -0.5 0 
-0.625 -0.5 0 
-0.5 0 0 
-0.75 0 0 
-1 -0.5 0 
-0.8125 -0.5 0 
-0.75 0 0 
-1 0 0 
-0.75 -1 0 
-0.625 -1 0 
-0.4375 -0.5 0 
-0.625 -0.5 0 
-0.625 -1 0 
-0.5 -1 0 
-0.25 -0.5 0 
-0.4375 -0.5 0 
-0.4375 -0.5 0 
-0.25 -0.5 0 
0 0 0 
-0.25 0 0 
-0.625 -0.5 0 
-0.4375 -0.5 0 
-0.25 0 0 
-0.5 0 0 
-0.5 0 0 
-0.25 0 0 
-0.0625 0.5 0 
-0.375 0.5 0 
-0.25 0 0 
0 0 0 
0.25 0.5 0 
-0.0625 0.5 0 
-0.0625 0.5 0 
0.25 0.5 0 
0.5 1 0 
0.125 1 0 
-0.375 0.5 0 
-0.0625 0.5 0 
0.125 1 0 
-0.25 1 0 
-1 0 0 
-0.75 0 0 
-0.6875 0.5 0 
-1 0.5 0 
-0.75 0 0 
-0.5 0 0 
-0.375 0.5 0 
-0.6875 0.5 0 
-0.6875 0.5 0 
-0.375 0.5 0 
-0.25 1 0 
-0.625 1 0 
-1 0.5 0 
-0.6875 0.5 0 
-0.625 1 0 
-1 1 0 

CELLS 20 100
4 0 1 2 3
4 4 5 6 7
4 8 9 10 11
4 12 13 14 15
4 16 17 18 19
4 20 21 22 23
4 24 25 26 27
4 28 29 30 31
4 32 33 34 35
4 36 37 38 39
4 40 41 42 43
4 44 45 46 47
4 48 49 50 51
4 52 53 54 55
4 56 57 58 59
4 60 61 62 63
4 64 65 66 67
4 68 69 70 71
4 72 73 74 75
4 76 77 78 79

CELL_TYPES 20
9
9
9
9
9
9
9
9
9
9
9
9
9
9
9
9
9
9
9
9

CELL_DATA 20
FIELD FieldData 2
material 1 20 int
0
0
0
0
0
0
0
0
0
0
0
0
0
0
0
0
0
0
0
0
elIndex 1 20 int
7
8
9
10
11
12
13
14
15
16
17
18
19
20
21
22
23
24
25
26
