# vtk DataFile Version 3.0
TPZGeoMesh VTK Visualization
ASCII

DATASET UNSTRUCTURED_GRID
POINTS 32 float
1 0 0 
0.995185 0.0980171 0 
0.995185 0.0980171 0 
0.980785 0.19509 0 
0.980785 0.19509 0 
0.95694 0.290285 0 
0.95694 0.290285 0 
0.92388 0.382683 0 
0.92388 0.382683 0 
0.881921 0.471397 0 
0.881921 0.471397 0 
0.83147 0.55557 0 
0.83147 0.55557 0 
0.77301 0.634393 0 
0.77301 0.634393 0 
0.707107 0.707107 0 
0.707107 0.707107 0 
0.634393 0.77301 0 
0.634393 0.77301 0 
0.55557 0.83147 0 
0.55557 0.83147 0 
0.471397 0.881921 0 
0.471397 0.881921 0 
0.382683 0.92388 0 
0.382683 0.92388 0 
0.290285 0.95694 0 
0.290285 0.95694 0 
0.19509 0.980785 0 
0.19509 0.980785 0 
0.0980171 0.995185 0 
0.0980171 0.995185 0 
0 1 0 

CELLS 16 48
2 0 1
2 2 3
2 4 5
2 6 7
2 8 9
2 10 11
2 12 13
2 14 15
2 16 17
2 18 19
2 20 21
2 22 23
2 24 25
2 26 27
2 28 29
2 30 31

CELL_TYPES 16
3
3
3
3
3
3
3
3
3
3
3
3
3
3
3
3

CELL_DATA 16
FIELD FieldData 2
material 1 16 int
1
1
1
1
1
1
1
1
1
1
1
1
1
1
1
1
elIndex 1 16 int
15
16
17
18
19
20
21
22
23
24
25
26
27
28
29
30
