# vtk DataFile Version 3.0
TPZGeoMesh VTK Visualization
ASCII

DATASET UNSTRUCTURED_GRID
POINTS 32 float
0.0666682 0.426308 0.551121 
0.126756 0.439191 0.545009 
0.126756 0.439191 0.545009 
0.185151 0.451025 0.538818 
0.185151 0.451025 0.538818 
0.241855 0.46181 0.532547 
0.241855 0.46181 0.532547 
0.296868 0.471546 0.526196 
0.296868 0.471546 0.526196 
0.350188 0.480233 0.519767 
0.350188 0.480233 0.519767 
0.401817 0.487871 0.513257 
0.401817 0.487871 0.513257 
0.451754 0.49446 0.506668 
0.451754 0.49446 0.506668 
0.5 0.5 0.5 
0.5 0.5 0.5 
0.546554 0.504491 0.493252 
0.546554 0.504491 0.493252 
0.591416 0.507933 0.486425 
0.591416 0.507933 0.486425 
0.634586 0.510325 0.479518 
0.634586 0.510325 0.479518 
0.676065 0.511669 0.472532 
0.676065 0.511669 0.472532 
0.715852 0.511964 0.465466 
0.715852 0.511964 0.465466 
0.753948 0.511209 0.458321 
0.753948 0.511209 0.458321 
0.790351 0.509406 0.451096 
0.790351 0.509406 0.451096 
0.825063 0.506553 0.443792 

CELLS 16 48
2 0 1
2 2 3
2 4 5
2 6 7
2 8 9
2 10 11
2 12 13
2 14 15
2 16 17
2 18 19
2 20 21
2 22 23
2 24 25
2 26 27
2 28 29
2 30 31

CELL_TYPES 16
3
3
3
3
3
3
3
3
3
3
3
3
3
3
3
3

CELL_DATA 16
FIELD FieldData 2
material 1 16 int
1
1
1
1
1
1
1
1
1
1
1
1
1
1
1
1
elIndex 1 16 int
15
16
17
18
19
20
21
22
23
24
25
26
27
28
29
30
