# vtk DataFile Version 3.0
TPZGeoMesh VTK Visualization
ASCII

DATASET UNSTRUCTURED_GRID
POINTS 1024 float
0.136571 0.157127 0.561789 
0.190221 0.174504 0.56636 
0.20432 0.239345 0.582999 
0.152442 0.221865 0.579302 
0.190221 0.174504 0.56636 
0.243243 0.189897 0.569333 
0.255633 0.254837 0.585124 
0.20432 0.239345 0.582999 
0.20432 0.239345 0.582999 
0.255633 0.254837 0.585124 
0.266948 0.316761 0.598326 
0.217249 0.301155 0.596924 
0.152442 0.221865 0.579302 
0.20432 0.239345 0.582999 
0.217249 0.301155 0.596924 
0.167048 0.283559 0.593976 
0.243243 0.189897 0.569333 
0.295638 0.203305 0.570706 
0.306383 0.268342 0.585675 
0.255633 0.254837 0.585124 
0.295638 0.203305 0.570706 
0.347405 0.214728 0.570481 
0.356567 0.279859 0.584653 
0.306383 0.268342 0.585675 
0.306383 0.268342 0.585675 
0.356567 0.279859 0.584653 
0.364841 0.342001 0.596489 
0.316145 0.330376 0.59818 
0.255633 0.254837 0.585124 
0.306383 0.268342 0.585675 
0.316145 0.330376 0.59818 
0.266948 0.316761 0.598326 
0.266948 0.316761 0.598326 
0.316145 0.330376 0.59818 
0.324925 0.389408 0.608223 
0.277185 0.375668 0.608939 
0.316145 0.330376 0.59818 
0.364841 0.342001 0.596489 
0.372225 0.401155 0.605986 
0.324925 0.389408 0.608223 
0.324925 0.389408 0.608223 
0.372225 0.401155 0.605986 
0.378721 0.45732 0.613147 
0.332722 0.445437 0.615802 
0.277185 0.375668 0.608939 
0.324925 0.389408 0.608223 
0.332722 0.445437 0.615802 
0.286347 0.431558 0.616963 
0.167048 0.283559 0.593976 
0.217249 0.301155 0.596924 
0.229007 0.359935 0.608134 
0.180391 0.342209 0.605809 
0.217249 0.301155 0.596924 
0.266948 0.316761 0.598326 
0.277185 0.375668 0.608939 
0.229007 0.359935 0.608134 
0.229007 0.359935 0.608134 
0.277185 0.375668 0.608939 
0.286347 0.431558 0.616963 
0.239596 0.415684 0.61663 
0.180391 0.342209 0.605809 
0.229007 0.359935 0.608134 
0.239596 0.415684 0.61663 
0.192469 0.397813 0.614802 
0.347405 0.214728 0.570481 
0.398544 0.224167 0.568656 
0.406187 0.289389 0.582059 
0.356567 0.279859 0.584653 
0.398544 0.224167 0.568656 
0.449057 0.23162 0.565232 
0.455243 0.296931 0.577891 
0.406187 0.289389 0.582059 
0.406187 0.289389 0.582059 
0.455243 0.296931 0.577891 
0.460727 0.359281 0.588464 
0.413035 0.351636 0.59325 
0.356567 0.279859 0.584653 
0.406187 0.289389 0.582059 
0.413035 0.351636 0.59325 
0.364841 0.342001 0.596489 
0.449057 0.23162 0.565232 
0.498941 0.237089 0.56021 
0.503734 0.302485 0.572151 
0.455243 0.296931 0.577891 
0.498941 0.237089 0.56021 
0.548199 0.240574 0.553588 
0.55166 0.306052 0.564838 
0.503734 0.302485 0.572151 
0.503734 0.302485 0.572151 
0.55166 0.306052 0.564838 
0.554607 0.368598 0.574253 
0.507918 0.364935 0.582132 
0.455243 0.296931 0.577891 
0.503734 0.302485 0.572151 
0.507918 0.364935 0.582132 
0.460727 0.359281 0.588464 
0.460727 0.359281 0.588464 
0.507918 0.364935 0.582132 
0.511495 0.424437 0.590153 
0.465511 0.418669 0.596951 
0.507918 0.364935 0.582132 
0.554607 0.368598 0.574253 
0.557041 0.428211 0.581833 
0.511495 0.424437 0.590153 
0.511495 0.424437 0.590153 
0.557041 0.428211 0.581833 
0.558961 0.484891 0.587579 
0.514465 0.480992 0.596212 
0.465511 0.418669 0.596951 
0.511495 0.424437 0.590153 
0.514465 0.480992 0.596212 
0.469593 0.475097 0.603352 
0.364841 0.342001 0.596489 
0.413035 0.351636 0.59325 
0.419087 0.410909 0.602229 
0.372225 0.401155 0.605986 
0.413035 0.351636 0.59325 
0.460727 0.359281 0.588464 
0.465511 0.418669 0.596951 
0.419087 0.410909 0.602229 
0.419087 0.410909 0.602229 
0.465511 0.418669 0.596951 
0.469593 0.475097 0.603352 
0.424345 0.467206 0.608996 
0.372225 0.401155 0.605986 
0.419087 0.410909 0.602229 
0.424345 0.467206 0.608996 
0.378721 0.45732 0.613147 
0.378721 0.45732 0.613147 
0.424345 0.467206 0.608996 
0.428807 0.520529 0.613552 
0.384328 0.510496 0.617969 
0.424345 0.467206 0.608996 
0.469593 0.475097 0.603352 
0.472973 0.528565 0.607666 
0.428807 0.520529 0.613552 
0.428807 0.520529 0.613552 
0.472973 0.528565 0.607666 
0.475652 0.579071 0.609894 
0.432474 0.570878 0.615896 
0.384328 0.510496 0.617969 
0.428807 0.520529 0.613552 
0.432474 0.570878 0.615896 
0.389047 0.560683 0.620455 
0.469593 0.475097 0.603352 
0.514465 0.480992 0.596212 
0.516826 0.534601 0.600312 
0.472973 0.528565 0.607666 
0.514465 0.480992 0.596212 
0.558961 0.484891 0.587579 
0.560366 0.538639 0.591489 
0.516826 0.534601 0.600312 
0.516826 0.534601 0.600312 
0.560366 0.538639 0.591489 
0.561258 0.589453 0.593565 
0.51858 0.585263 0.602451 
0.472973 0.528565 0.607666 
0.516826 0.534601 0.600312 
0.51858 0.585263 0.602451 
0.475652 0.579071 0.609894 
0.475652 0.579071 0.609894 
0.51858 0.585263 0.602451 
0.519727 0.632978 0.602629 
0.47763 0.626617 0.610036 
0.51858 0.585263 0.602451 
0.561258 0.589453 0.593565 
0.561636 0.637335 0.593806 
0.519727 0.632978 0.602629 
0.519727 0.632978 0.602629 
0.561636 0.637335 0.593806 
0.5615 0.682284 0.592212 
0.520265 0.677746 0.600847 
0.47763 0.626617 0.610036 
0.519727 0.632978 0.602629 
0.520265 0.677746 0.600847 
0.478907 0.671201 0.608092 
0.389047 0.560683 0.620455 
0.432474 0.570878 0.615896 
0.435347 0.618251 0.616028 
0.392876 0.607881 0.620603 
0.432474 0.570878 0.615896 
0.475652 0.579071 0.609894 
0.47763 0.626617 0.610036 
0.435347 0.618251 0.616028 
0.435347 0.618251 0.616028 
0.47763 0.626617 0.610036 
0.478907 0.671201 0.608092 
0.437423 0.66265 0.613948 
0.392876 0.607881 0.620603 
0.435347 0.618251 0.616028 
0.437423 0.66265 0.613948 
0.395816 0.652091 0.618413 
0.192469 0.397813 0.614802 
0.239596 0.415684 0.61663 
0.249015 0.468402 0.622411 
0.203284 0.450373 0.620955 
0.239596 0.415684 0.61663 
0.286347 0.431558 0.616963 
0.294432 0.484432 0.622399 
0.249015 0.468402 0.622411 
0.249015 0.468402 0.622411 
0.294432 0.484432 0.622399 
0.301441 0.534289 0.625246 
0.257263 0.518089 0.625478 
0.203284 0.450373 0.620955 
0.249015 0.468402 0.622411 
0.257263 0.518089 0.625478 
0.212835 0.499889 0.624268 
0.286347 0.431558 0.616963 
0.332722 0.445437 0.615802 
0.339537 0.498463 0.620918 
0.294432 0.484432 0.622399 
0.332722 0.445437 0.615802 
0.378721 0.45732 0.613147 
0.384328 0.510496 0.617969 
0.339537 0.498463 0.620918 
0.339537 0.498463 0.620918 
0.384328 0.510496 0.617969 
0.389047 0.560683 0.620455 
0.345369 0.548487 0.623571 
0.294432 0.484432 0.622399 
0.339537 0.498463 0.620918 
0.345369 0.548487 0.623571 
0.301441 0.534289 0.625246 
0.301441 0.534289 0.625246 
0.345369 0.548487 0.623571 
0.350218 0.595507 0.623761 
0.307373 0.581129 0.625504 
0.345369 0.548487 0.623571 
0.389047 0.560683 0.620455 
0.392876 0.607881 0.620603 
0.350218 0.595507 0.623761 
0.350218 0.595507 0.623761 
0.392876 0.607881 0.620603 
0.395816 0.652091 0.618413 
0.354085 0.639525 0.621488 
0.307373 0.581129 0.625504 
0.350218 0.595507 0.623761 
0.354085 0.639525 0.621488 
0.31223 0.624952 0.623173 
0.212835 0.499889 0.624268 
0.257263 0.518089 0.625478 
0.264342 0.564746 0.62583 
0.221123 0.546359 0.62474 
0.257263 0.518089 0.625478 
0.301441 0.534289 0.625246 
0.307373 0.581129 0.625504 
0.264342 0.564746 0.62583 
0.264342 0.564746 0.62583 
0.307373 0.581129 0.625504 
0.31223 0.624952 0.623173 
0.27025 0.608372 0.623468 
0.221123 0.546359 0.62474 
0.264342 0.564746 0.62583 
0.27025 0.608372 0.623468 
0.228146 0.589785 0.622373 
0.548199 0.240574 0.553588 
0.596828 0.242073 0.545367 
0.599022 0.307632 0.555952 
0.55166 0.306052 0.564838 
0.596828 0.242073 0.545367 
0.644831 0.241588 0.535548 
0.645819 0.307224 0.545493 
0.599022 0.307632 0.555952 
0.599022 0.307632 0.555952 
0.645819 0.307224 0.545493 
0.646481 0.369955 0.553855 
0.600795 0.370272 0.564827 
0.55166 0.306052 0.564838 
0.599022 0.307632 0.555952 
0.600795 0.370272 0.564827 
0.554607 0.368598 0.574253 
0.644831 0.241588 0.535548 
0.692206 0.239118 0.524129 
0.692052 0.304828 0.533461 
0.645819 0.307224 0.545493 
0.692206 0.239118 0.524129 
0.738953 0.234663 0.511111 
0.73772 0.300445 0.519856 
0.692052 0.304828 0.533461 
0.692052 0.304828 0.533461 
0.73772 0.300445 0.519856 
0.736348 0.36335 0.527269 
0.691665 0.367647 0.541335 
0.645819 0.307224 0.545493 
0.692052 0.304828 0.533461 
0.691665 0.367647 0.541335 
0.646481 0.369955 0.553855 
0.646481 0.369955 0.553855 
0.691665 0.367647 0.541335 
0.691046 0.427576 0.547751 
0.646816 0.429781 0.560633 
0.691665 0.367647 0.541335 
0.736348 0.36335 0.527269 
0.734837 0.423378 0.53335 
0.691046 0.427576 0.547751 
0.691046 0.427576 0.547751 
0.734837 0.423378 0.53335 
0.733187 0.480529 0.538098 
0.690194 0.484613 0.55271 
0.646816 0.429781 0.560633 
0.691046 0.427576 0.547751 
0.690194 0.484613 0.55271 
0.646825 0.486702 0.565827 
0.554607 0.368598 0.574253 
0.600795 0.370272 0.564827 
0.602148 0.429993 0.571993 
0.557041 0.428211 0.581833 
0.600795 0.370272 0.564827 
0.646481 0.369955 0.553855 
0.646816 0.429781 0.560633 
0.602148 0.429993 0.571993 
0.602148 0.429993 0.571993 
0.646816 0.429781 0.560633 
0.646825 0.486702 0.565827 
0.603081 0.486795 0.57745 
0.557041 0.428211 0.581833 
0.602148 0.429993 0.571993 
0.603081 0.486795 0.57745 
0.558961 0.484891 0.587579 
0.738953 0.234663 0.511111 
0.785073 0.228223 0.496494 
0.782824 0.294074 0.504678 
0.73772 0.300445 0.519856 
0.785073 0.228223 0.496494 
0.830566 0.219799 0.480278 
0.827363 0.285716 0.487928 
0.782824 0.294074 0.504678 
0.782824 0.294074 0.504678 
0.827363 0.285716 0.487928 
0.824209 0.348783 0.494496 
0.780529 0.357062 0.511656 
0.73772 0.300445 0.519856 
0.782824 0.294074 0.504678 
0.780529 0.357062 0.511656 
0.736348 0.36335 0.527269 
0.830566 0.219799 0.480278 
0.875431 0.20939 0.462464 
0.871337 0.27537 0.469604 
0.827363 0.285716 0.487928 
0.875431 0.20939 0.462464 
0.919668 0.196996 0.44305 
0.914747 0.263036 0.449708 
0.871337 0.27537 0.469604 
0.871337 0.27537 0.469604 
0.914747 0.263036 0.449708 
0.910063 0.326256 0.455536 
0.867386 0.338515 0.47579 
0.827363 0.285716 0.487928 
0.871337 0.27537 0.469604 
0.867386 0.338515 0.47579 
0.824209 0.348783 0.494496 
0.824209 0.348783 0.494496 
0.867386 0.338515 0.47579 
0.863578 0.398825 0.48102 
0.821103 0.409002 0.499984 
[...]
CELL_DATA 256
FIELD FieldData 2
material 1 256 int
1
1
1
1
1
1
1
1
1
1
1
1
1
1
1
1
1
1
1
1
1
1
1
1
1
1
1
1
1
1
1
1
1
1
1
1
1
1
1
1
1
1
1
1
1
1
1
1
1
1
1
1
1
1
1
1
1
1
1
1
1
1
1
1
1
1
1
1
1
1
1
1
1
1
1
1
1
1
1
1
1
1
1
1
1
1
1
1
1
1
1
1
1
1
1
1
1
1
1
1
1
1
1
1
1
1
1
1
1
1
1
1
1
1
1
1
1
1
1
1
1
1
1
1
1
1
1
1
1
1
1
1
1
1
1
1
1
1
1
1
1
1
1
1
1
1
1
1
1
1
1
1
1
1
1
1
1
1
1
1
1
1
1
1
1
1
1
1
1
1
1
1
1
1
1
1
1
1
1
1
1
1
1
1
1
1
1
1
1
1
1
1
1
1
1
1
1
1
1
1
1
1
1
1
1
1
1
1
1
1
1
1
1
1
1
1
1
1
1
1
1
1
1
1
1
1
1
1
1
1
1
1
1
1
1
1
1
1
1
1
1
1
1
1
1
1
1
1
1
1
1
1
1
1
1
1
elIndex 1 256 int
85
86
87
88
89
90
91
92
93
94
95
96
97
98
99
100
101
102
103
104
105
106
107
108
109
110
111
112
113
114
115
116
117
118
119
120
121
122
123
124
125
126
127
128
129
130
131
132
133
134
135
136
137
138
139
140
141
142
143
144
145
146
147
148
149
150
151
152
153
154
155
156
157
158
159
160
161
162
163
164
165
166
167
168
169
170
171
172
173
174
175
176
177
178
179
180
181
182
183
184
185
186
187
188
189
190
191
192
193
194
195
196
197
198
199
200
201
202
203
204
205
206
207
208
209
210
211
212
213
214
215
216
217
218
219
220
221
222
223
224
225
226
227
228
229
230
231
232
233
234
235
236
237
238
239
240
241
242
243
244
245
246
247
248
249
250
251
252
253
254
255
256
257
258
259
260
261
262
263
264
265
266
267
268
269
270
271
272
273
274
275
276
277
278
279
280
281
282
283
284
285
286
287
288
289
290
291
292
293
294
295
296
297
298
299
300
301
302
303
304
305
306
307
308
309
310
311
312
313
314
315
316
317
318
319
320
321
322
323
324
325
326
327
328
329
330
331
332
333
334
335
336
337
338
339
340
