# vtk DataFile Version 3.0
TPZGeoMesh VTK Visualization
ASCII

DATASET UNSTRUCTURED_GRID
POINTS 768 float
0.570254 0.457863 0 
0.59076 0.478329 -0.00281069 
0.575002 0.489937 0.0113304 
0.59076 0.478329 -0.00281069 
0.610787 0.496441 -0.00524662 
0.595047 0.509734 0.00862564 
0.575002 0.489937 0.0113304 
0.595047 0.509734 0.00862564 
0.577871 0.52072 0.0211501 
0.595047 0.509734 0.00862564 
0.575002 0.489937 0.0113304 
0.59076 0.478329 -0.00281069 
0.610787 0.496441 -0.00524662 
0.630335 0.512199 -0.00730779 
0.614612 0.527178 0.00629561 
0.630335 0.512199 -0.00730779 
0.649403 0.525604 -0.0089942 
0.633698 0.542268 0.00434034 
0.614612 0.527178 0.00629561 
0.633698 0.542268 0.00434034 
0.616558 0.556624 0.0163271 
0.633698 0.542268 0.00434034 
0.614612 0.527178 0.00629561 
0.630335 0.512199 -0.00730779 
0.577871 0.52072 0.0211501 
0.597454 0.539849 0.0185513 
0.57886 0.550211 0.0294591 
0.597454 0.539849 0.0185513 
0.616558 0.556624 0.0163271 
0.597982 0.568672 0.0269661 
0.57886 0.550211 0.0294591 
0.597982 0.568672 0.0269661 
0.57797 0.578413 0.0362574 
0.597982 0.568672 0.0269661 
0.57886 0.550211 0.0294591 
0.597454 0.539849 0.0185513 
0.616558 0.556624 0.0163271 
0.597454 0.539849 0.0185513 
0.614612 0.527178 0.00629561 
0.597454 0.539849 0.0185513 
0.577871 0.52072 0.0211501 
0.595047 0.509734 0.00862564 
0.614612 0.527178 0.00629561 
0.595047 0.509734 0.00862564 
0.610787 0.496441 -0.00524662 
0.595047 0.509734 0.00862564 
0.614612 0.527178 0.00629561 
0.597454 0.539849 0.0185513 
0.649403 0.525604 -0.0089942 
0.667991 0.536655 -0.0103059 
0.652305 0.555005 0.00275983 
0.667991 0.536655 -0.0103059 
0.6861 0.545353 -0.0112428 
0.670432 0.565388 0.00155407 
0.652305 0.555005 0.00275983 
0.670432 0.565388 0.00155407 
0.653327 0.583114 0.0130031 
0.670432 0.565388 0.00155407 
0.652305 0.555005 0.00275983 
0.667991 0.536655 -0.0103059 
0.6861 0.545353 -0.0112428 
0.70373 0.551697 -0.0118049 
0.688079 0.573417 0.000723077 
0.70373 0.551697 -0.0118049 
0.72088 0.555688 -0.0119923 
0.705247 0.579093 0.000266839 
0.688079 0.573417 0.000723077 
0.705247 0.579093 0.000266839 
0.688179 0.600191 0.0111782 
0.705247 0.579093 0.000266839 
0.688079 0.573417 0.000723077 
0.70373 0.551697 -0.0118049 
0.653327 0.583114 0.0130031 
0.670993 0.592829 0.0119033 
0.652471 0.609933 0.0217357 
0.670993 0.592829 0.0119033 
0.688179 0.600191 0.0111782 
0.669675 0.61898 0.0207418 
0.652471 0.609933 0.0217357 
0.669675 0.61898 0.0207418 
0.649734 0.635461 0.0289576 
0.669675 0.61898 0.0207418 
0.652471 0.609933 0.0217357 
0.670993 0.592829 0.0119033 
0.688179 0.600191 0.0111782 
0.670993 0.592829 0.0119033 
0.688079 0.573417 0.000723077 
0.670993 0.592829 0.0119033 
0.653327 0.583114 0.0130031 
0.670432 0.565388 0.00155407 
0.688079 0.573417 0.000723077 
0.670432 0.565388 0.00155407 
0.6861 0.545353 -0.0112428 
0.670432 0.565388 0.00155407 
0.688079 0.573417 0.000723077 
0.670993 0.592829 0.0119033 
0.57797 0.578413 0.0362574 
0.59663 0.596205 0.0338703 
0.575201 0.605323 0.0415449 
0.59663 0.596205 0.0338703 
0.614811 0.611644 0.031858 
0.593399 0.622447 0.0392637 
0.575201 0.605323 0.0415449 
0.593399 0.622447 0.0392637 
0.570551 0.630942 0.0453217 
0.593399 0.622447 0.0392637 
0.575201 0.605323 0.0415449 
0.59663 0.596205 0.0338703 
0.614811 0.611644 0.031858 
0.632513 0.624729 0.0302204 
0.611118 0.637218 0.0373573 
0.632513 0.624729 0.0302204 
0.649734 0.635461 0.0289576 
0.628358 0.649635 0.0358256 
0.611118 0.637218 0.0373573 
0.628358 0.649635 0.0358256 
0.605546 0.661501 0.0413459 
0.628358 0.649635 0.0358256 
0.611118 0.637218 0.0373573 
0.632513 0.624729 0.0302204 
0.570551 0.630942 0.0453217 
0.588289 0.647398 0.0431464 
0.564023 0.655271 0.0475878 
0.588289 0.647398 0.0431464 
0.605546 0.661501 0.0413459 
0.581298 0.671058 0.0455184 
0.564023 0.655271 0.0475878 
0.581298 0.671058 0.0455184 
0.555614 0.678308 0.0483432 
0.581298 0.671058 0.0455184 
0.564023 0.655271 0.0475878 
0.588289 0.647398 0.0431464 
0.605546 0.661501 0.0413459 
0.588289 0.647398 0.0431464 
0.611118 0.637218 0.0373573 
0.588289 0.647398 0.0431464 
0.570551 0.630942 0.0453217 
0.593399 0.622447 0.0392637 
0.611118 0.637218 0.0373573 
0.593399 0.622447 0.0392637 
0.614811 0.611644 0.031858 
0.593399 0.622447 0.0392637 
0.611118 0.637218 0.0373573 
0.588289 0.647398 0.0431464 
0.649734 0.635461 0.0289576 
0.632513 0.624729 0.0302204 
0.652471 0.609933 0.0217357 
0.632513 0.624729 0.0302204 
0.614811 0.611644 0.031858 
0.634787 0.598533 0.0231044 
0.652471 0.609933 0.0217357 
0.634787 0.598533 0.0231044 
0.653327 0.583114 0.0130031 
0.634787 0.598533 0.0231044 
0.652471 0.609933 0.0217357 
0.632513 0.624729 0.0302204 
0.614811 0.611644 0.031858 
0.59663 0.596205 0.0338703 
0.616624 0.584779 0.0248479 
0.59663 0.596205 0.0338703 
0.57797 0.578413 0.0362574 
0.597982 0.568672 0.0269661 
0.616624 0.584779 0.0248479 
0.597982 0.568672 0.0269661 
0.616558 0.556624 0.0163271 
0.597982 0.568672 0.0269661 
0.616624 0.584779 0.0248479 
0.59663 0.596205 0.0338703 
0.653327 0.583114 0.0130031 
0.635183 0.571046 0.0144777 
0.652305 0.555005 0.00275983 
0.635183 0.571046 0.0144777 
0.616558 0.556624 0.0163271 
0.633698 0.542268 0.00434034 
0.652305 0.555005 0.00275983 
0.633698 0.542268 0.00434034 
0.649403 0.525604 -0.0089942 
0.633698 0.542268 0.00434034 
0.652305 0.555005 0.00275983 
0.635183 0.571046 0.0144777 
0.616558 0.556624 0.0163271 
0.635183 0.571046 0.0144777 
0.616624 0.584779 0.0248479 
0.635183 0.571046 0.0144777 
0.653327 0.583114 0.0130031 
0.634787 0.598533 0.0231044 
0.616624 0.584779 0.0248479 
0.634787 0.598533 0.0231044 
0.614811 0.611644 0.031858 
0.634787 0.598533 0.0231044 
0.616624 0.584779 0.0248479 
0.635183 0.571046 0.0144777 
0.72088 0.555688 -0.0119923 
0.73755 0.557325 -0.0118049 
0.721936 0.582416 0.000185359 
0.73755 0.557325 -0.0118049 
0.753741 0.556609 -0.0112428 
0.738145 0.583385 0.000478638 
0.721936 0.582416 0.000185359 
0.738145 0.583385 0.000478638 
0.721112 0.607853 0.0108523 
0.738145 0.583385 0.000478638 
0.721936 0.582416 0.000185359 
0.73755 0.557325 -0.0118049 
0.753741 0.556609 -0.0112428 
0.769453 0.553539 -0.0103059 
0.753874 0.582 0.00114667 
0.769453 0.553539 -0.0103059 
0.784685 0.548116 -0.0089942 
0.769124 0.578262 0.00218947 
0.753874 0.582 0.00114667 
0.769124 0.578262 0.00218947 
0.752128 0.606101 0.0120254 
0.769124 0.578262 0.00218947 
0.753874 0.582 0.00114667 
0.769453 0.553539 -0.0103059 
0.721112 0.607853 0.0108523 
0.73686 0.608153 0.0112514 
0.718409 0.631999 0.0200084 
0.73686 0.608153 0.0112514 
0.752128 0.606101 0.0120254 
0.733695 0.631631 0.0205135 
0.718409 0.631999 0.0200084 
0.733695 0.631631 0.0205135 
0.713827 0.654854 0.0276539 
0.733695 0.631631 0.0205135 
0.718409 0.631999 0.0200084 
0.73686 0.608153 0.0112514 
0.752128 0.606101 0.0120254 
0.73686 0.608153 0.0112514 
0.753874 0.582 0.00114667 
0.73686 0.608153 0.0112514 
0.721112 0.607853 0.0108523 
0.738145 0.583385 0.000478638 
0.753874 0.582 0.00114667 
0.738145 0.583385 0.000478638 
0.753741 0.556609 -0.0112428 
0.738145 0.583385 0.000478638 
0.753874 0.582 0.00114667 
0.73686 0.608153 0.0112514 
0.784685 0.548116 -0.0089942 
0.799437 0.540339 -0.00730779 
0.783895 0.572171 0.00360702 
0.799437 0.540339 -0.00730779 
0.813711 0.530208 -0.00524662 
0.798186 0.563725 0.00539934 
0.783895 0.572171 0.00360702 
0.798186 0.563725 0.00539934 
0.781225 0.594934 0.0146975 
0.798186 0.563725 0.00539934 
0.783895 0.572171 0.00360702 
0.799437 0.540339 -0.00730779 
0.813711 0.530208 -0.00524662 
0.827504 0.517724 -0.00281069 
0.811998 0.552927 0.00756641 
0.827504 0.517724 -0.00281069 
0.840818 0.502887 0 
0.82533 0.539774 0.0101082 
0.811998 0.552927 0.00756641 
0.82533 0.539774 0.0101082 
0.808405 0.574354 0.0188687 
0.82533 0.539774 0.0101082 
0.811998 0.552927 0.00756641 
0.827504 0.517724 -0.00281069 
0.781225 0.594934 0.0146975 
0.795055 0.585821 0.0165957 
0.776676 0.616407 0.0242773 
0.795055 0.585821 0.0165957 
0.808405 0.574354 0.0188687 
0.790044 0.606626 0.0262814 
0.776676 0.616407 0.0242773 
0.790044 0.606626 0.0262814 
0.770248 0.63659 0.0323464 
0.790044 0.606626 0.0262814 
0.776676 0.616407 0.0242773 
0.795055 0.585821 0.0165957 
0.808405 0.574354 0.0188687 
0.795055 0.585821 0.0165957 
0.811998 0.552927 0.00756641 
0.795055 0.585821 0.0165957 
0.781225 0.594934 0.0146975 
0.798186 0.563725 0.00539934 
0.811998 0.552927 0.00756641 
0.798186 0.563725 0.00539934 
0.813711 0.530208 -0.00524662 
0.798186 0.563725 0.00539934 
0.811998 0.552927 0.00756641 
0.795055 0.585821 0.0165957 
0.713827 0.654854 0.0276539 
0.728651 0.653818 0.0282649 
0.707365 0.676418 0.0337886 
0.728651 0.653818 0.0282649 
0.742996 0.650429 0.0292506 
0.721728 0.674714 0.0345055 
0.707365 0.676418 0.0337886 
0.721728 0.674714 0.0345055 
0.699024 0.696691 0.0384126 
0.721728 0.674714 0.0345055 
0.707365 0.676418 0.0337886 
0.728651 0.653818 0.0282649 
0.742996 0.650429 0.0292506 
0.756862 0.644686 0.0306111 
0.735611 0.670656 0.0355971 
0.756862 0.644686 0.0306111 
0.770248 0.63659 0.0323464 
0.749015 0.664245 0.0370635 
0.735611 0.670656 0.0355971 
0.749015 0.664245 0.0370635 
0.726347 0.689593 0.0404329 
0.749015 0.664245 0.0370635 
0.735611 0.670656 0.0355971 
0.756862 0.644686 0.0306111 
0.699024 0.696691 0.0384126 
0.712925 0.694319 0.0392354 
0.688803 0.715674 0.0415259 
0.712925 0.694319 0.0392354 
0.726347 0.689593 0.0404329 
0.702242 0.712634 0.0424546 
0.688803 0.715674 0.0415259 
0.702242 0.712634 0.0424546 
0.676702 0.733366 0.0431285 
0.702242 0.712634 0.0424546 
0.688803 0.715674 0.0415259 
0.712925 0.694319 0.0392354 
0.726347 0.689593 0.0404329 
0.712925 0.694319 0.0392354 
0.735611 0.670656 0.0355971 
0.712925 0.694319 0.0392354 
0.699024 0.696691 0.0384126 
0.721728 0.674714 0.0345055 
0.735611 0.670656 0.0355971 
0.721728 0.674714 0.0345055 
0.742996 0.650429 0.0292506 
0.721728 0.674714 0.0345055 
0.735611 0.670656 0.0355971 
0.712925 0.694319 0.0392354 
0.770248 0.63659 0.0323464 
0.756862 0.644686 0.0306111 
0.776676 0.616407 0.0242773 
0.756862 0.644686 0.0306111 
0.742996 0.650429 0.0292506 
0.762829 0.623835 0.0226479 
0.776676 0.616407 0.0242773 
0.762829 0.623835 0.0226479 
0.781225 0.594934 0.0146975 
0.762829 0.623835 0.0226479 
0.776676 0.616407 0.0242773 
0.756862 0.644686 0.0306111 
0.742996 0.650429 0.0292506 
0.728651 0.653818 0.0282649 
0.748502 0.62891 0.0213934 
0.728651 0.653818 0.0282649 
0.713827 0.654854 0.0276539 
0.733695 0.631631 0.0205135 
0.748502 0.62891 0.0213934 
0.733695 0.631631 0.0205135 
0.752128 0.606101 0.0120254 
0.733695 0.631631 0.0205135 
0.748502 0.62891 0.0213934 
0.728651 0.653818 0.0282649 
0.781225 0.594934 0.0146975 
0.766916 0.601694 0.0131741 
0.783895 0.572171 0.00360702 
0.766916 0.601694 0.0131741 
0.752128 0.606101 0.0120254 
0.769124 0.578262 0.00218947 
0.783895 0.572171 0.00360702 
0.769124 0.578262 0.00218947 
0.784685 0.548116 -0.0089942 
0.769124 0.578262 0.00218947 
0.783895 0.572171 0.00360702 
0.766916 0.601694 0.0131741 
0.752128 0.606101 0.0120254 
0.766916 0.601694 0.0131741 
0.748502 0.62891 0.0213934 
0.766916 0.601694 0.0131741 
0.781225 0.594934 0.0146975 
0.762829 0.623835 0.0226479 
0.748502 0.62891 0.0213934 
0.762829 0.623835 0.0226479 
0.742996 0.650429 0.0292506 
0.762829 0.623835 0.0226479 
0.748502 0.62891 0.0213934 
0.766916 0.601694 0.0131741 
0.555614 0.678308 0.0483432 
0.572429 0.693428 0.0463797 
0.545327 0.700055 0.0475878 
0.572429 0.693428 0.0463797 
0.588763 0.706194 0.044791 
0.561679 0.714506 0.0457302 
0.545327 0.700055 0.0475878 
0.561679 0.714506 0.0457302 
0.53316 0.720511 0.0453217 
0.561679 0.714506 0.0457302 
0.545327 0.700055 0.0475878 
0.572429 0.693428 0.0463797 
0.588763 0.706194 0.044791 
0.604618 0.716606 0.043577 
0.577552 0.726604 0.0442474 
0.604618 0.716606 0.043577 
0.619994 0.724665 0.0427378 
0.592946 0.736348 0.0431393 
0.577552 0.726604 0.0442474 
0.592946 0.736348 0.0431393 
0.564462 0.745724 0.0421931 
0.592946 0.736348 0.0431393 
0.577552 0.726604 0.0442474 
0.604618 0.716606 0.043577 
0.53316 0.720511 0.0453217 
0.549051 0.734294 0.04357 
0.519113 0.739676 0.0415449 
0.549051 0.734294 0.04357 
0.564462 0.745724 0.0421931 
0.534542 0.752791 0.0398991 
0.519113 0.739676 0.0415449 
0.534542 0.752791 0.0398991 
0.503187 0.75755 0.0362574 
0.534542 0.752791 0.0398991 
0.519113 0.739676 0.0415449 
0.549051 0.734294 0.04357 
0.564462 0.745724 0.0421931 
0.549051 0.734294 0.04357 
0.577552 0.726604 0.0442474 
0.549051 0.734294 0.04357 
0.53316 0.720511 0.0453217 
0.561679 0.714506 0.0457302 
0.577552 0.726604 0.0442474 
0.561679 0.714506 0.0457302 
0.588763 0.706194 0.044791 
0.561679 0.714506 0.0457302 
0.577552 0.726604 0.0442474 
0.549051 0.734294 0.04357 
0.619994 0.724665 0.0427378 
0.63489 0.730371 0.0422733 
0.60786 0.743739 0.042406 
0.63489 0.730371 0.0422733 
0.649307 0.733723 0.0421836 
0.622295 0.748776 0.0420474 
0.60786 0.743739 0.042406 
0.622295 0.748776 0.0420474 
0.593847 0.761522 0.0405635 
0.622295 0.748776 0.0420474 
0.60786 0.743739 0.042406 
0.63489 0.730371 0.0422733 
0.649307 0.733723 0.0421836 
0.663244 0.734721 0.0424687 
0.63625 0.75146 0.0420636 
0.663244 0.734721 0.0424687 
0.676702 0.733366 0.0431285 
0.649726 0.75179 0.0424546 
0.63625 0.75146 0.0420636 
0.649726 0.75179 0.0424546 
0.621314 0.767906 0.0404329 
0.649726 0.75179 0.0424546 
0.63625 0.75146 0.0420636 
0.663244 0.734721 0.0424687 
0.593847 0.761522 0.0405635 
0.60782 0.765891 0.0403108 
0.577954 0.778014 0.0372103 
0.60782 0.765891 0.0403108 
0.621314 0.767906 0.0404329 
0.591466 0.781715 0.0370635 
0.577954 0.778014 0.0372103 
0.591466 0.781715 0.0370635 
0.560182 0.793216 0.0323464 
0.591466 0.781715 0.0370635 
0.577954 0.778014 0.0372103 
0.60782 0.765891 0.0403108 
0.621314 0.767906 0.0404329 
0.60782 0.765891 0.0403108 
0.63625 0.75146 0.0420636 
0.60782 0.765891 0.0403108 
0.593847 0.761522 0.0405635 
0.622295 0.748776 0.0420474 
0.63625 0.75146 0.0420636 
0.622295 0.748776 0.0420474 
0.649307 0.733723 0.0421836 
0.622295 0.748776 0.0420474 
0.63625 0.75146 0.0420636 
0.60782 0.765891 0.0403108 
0.503187 0.75755 0.0362574 
0.518155 0.769997 0.0347175 
0.485381 0.774134 0.0294591 
0.518155 0.769997 0.0347175 
0.532643 0.78009 0.0335524 
0.499887 0.785912 0.0280251 
0.485381 0.774134 0.0294591 
0.499887 0.785912 0.0280251 
0.465696 0.789426 0.0211501 
0.499887 0.785912 0.0280251 
0.485381 0.774134 0.0294591 
0.518155 0.769997 0.0347175 
0.532643 0.78009 0.0335524 
0.546652 0.78783 0.032762 
0.513914 0.795337 0.0269659 
0.546652 0.78783 0.032762 
0.560182 0.793216 0.0323464 
0.527462 0.802408 0.0262814 
0.513914 0.795337 0.0269659 
0.527462 0.802408 0.0262814 
0.493306 0.809293 0.0188687 
0.527462 0.802408 0.0262814 
0.513914 0.795337 0.0269659 
0.546652 0.78783 0.032762 
0.465696 0.789426 0.0211501 
0.479741 0.800537 0.019822 
0.444131 0.803428 0.0113304 
0.479741 0.800537 0.019822 
0.493306 0.809293 0.0188687 
0.457714 0.81387 0.0101082 
0.444131 0.803428 0.0113304 
0.457714 0.81387 0.0101082 
0.420687 0.816139 0 
0.457714 0.81387 0.0101082 
0.444131 0.803428 0.0113304 
0.479741 0.800537 0.019822 
0.493306 0.809293 0.0188687 
0.479741 0.800537 0.019822 
0.513914 0.795337 0.0269659 
0.479741 0.800537 0.019822 
0.465696 0.789426 0.0211501 
0.499887 0.785912 0.0280251 
0.513914 0.795337 0.0269659 
0.499887 0.785912 0.0280251 
0.532643 0.78009 0.0335524 
0.499887 0.785912 0.0280251 
0.513914 0.795337 0.0269659 
0.479741 0.800537 0.019822 
0.560182 0.793216 0.0323464 
0.546652 0.78783 0.032762 
0.577954 0.778014 0.0372103 
0.546652 0.78783 0.032762 
0.532643 0.78009 0.0335524 
0.563963 0.77196 0.0377318 
0.577954 0.778014 0.0372103 
0.563963 0.77196 0.0377318 
0.593847 0.761522 0.0405635 
0.563963 0.77196 0.0377318 
0.577954 0.778014 0.0372103 
0.546652 0.78783 0.032762 
0.532643 0.78009 0.0335524 
0.518155 0.769997 0.0347175 
0.549492 0.763552 0.0386281 
0.518155 0.769997 0.0347175 
0.503187 0.75755 0.0362574 
0.534542 0.752791 0.0398991 
0.549492 0.763552 0.0386281 
0.534542 0.752791 0.0398991 
0.564462 0.745724 0.0421931 
0.534542 0.752791 0.0398991 
0.549492 0.763552 0.0386281 
0.518155 0.769997 0.0347175 
0.593847 0.761522 0.0405635 
0.579394 0.7548 0.0411909 
0.60786 0.743739 0.042406 
0.579394 0.7548 0.0411909 
0.564462 0.745724 0.0421931 
0.592946 0.736348 0.0431393 
0.60786 0.743739 0.042406 
0.592946 0.736348 0.0431393 
0.619994 0.724665 0.0427378 
0.592946 0.736348 0.0431393 
0.60786 0.743739 0.042406 
0.579394 0.7548 0.0411909 
0.564462 0.745724 0.0421931 
0.579394 0.7548 0.0411909 
0.549492 0.763552 0.0386281 
0.579394 0.7548 0.0411909 
0.593847 0.761522 0.0405635 
0.563963 0.77196 0.0377318 
0.549492 0.763552 0.0386281 
0.563963 0.77196 0.0377318 
0.532643 0.78009 0.0335524 
0.563963 0.77196 0.0377318 
0.549492 0.763552 0.0386281 
0.579394 0.7548 0.0411909 
0.676702 0.733366 0.0431285 
0.663244 0.734721 0.0424687 
0.688803 0.715674 0.0415259 
0.663244 0.734721 0.0424687 
0.649307 0.733723 0.0421836 
0.674883 0.716361 0.040972 
0.688803 0.715674 0.0415259 
0.674883 0.716361 0.040972 
0.699024 0.696691 0.0384126 
0.674883 0.716361 0.040972 
0.688803 0.715674 0.0415259 
0.663244 0.734721 0.0424687 
0.649307 0.733723 0.0421836 
0.63489 0.730371 0.0422733 
0.660484 0.714694 0.0407928 
0.63489 0.730371 0.0422733 
0.619994 0.724665 0.0427378 
0.645606 0.710674 0.0409884 
0.660484 0.714694 0.0407928 
0.645606 0.710674 0.0409884 
0.669782 0.694375 0.0378914 
0.645606 0.710674 0.0409884 
0.660484 0.714694 0.0407928 
0.63489 0.730371 0.0422733 
0.699024 0.696691 0.0384126 
0.684643 0.69671 0.0379646 
0.707365 0.676418 0.0337886 
0.684643 0.69671 0.0379646 
0.669782 0.694375 0.0378914 
0.692523 0.675768 0.0334465 
0.707365 0.676418 0.0337886 
0.692523 0.675768 0.0334465 
0.713827 0.654854 0.0276539 
0.692523 0.675768 0.0334465 
0.707365 0.676418 0.0337886 
0.684643 0.69671 0.0379646 
0.669782 0.694375 0.0378914 
0.684643 0.69671 0.0379646 
0.660484 0.714694 0.0407928 
0.684643 0.69671 0.0379646 
0.699024 0.696691 0.0384126 
0.674883 0.716361 0.040972 
0.660484 0.714694 0.0407928 
0.674883 0.716361 0.040972 
0.649307 0.733723 0.0421836 
0.674883 0.716361 0.040972 
0.660484 0.714694 0.0407928 
0.684643 0.69671 0.0379646 
0.619994 0.724665 0.0427378 
0.604618 0.716606 0.043577 
0.630248 0.704301 0.0415588 
0.604618 0.716606 0.043577 
0.588763 0.706194 0.044791 
0.614411 0.695573 0.0425039 
0.630248 0.704301 0.0415588 
0.614411 0.695573 0.0425039 
0.638623 0.682645 0.0388691 
0.614411 0.695573 0.0425039 
0.630248 0.704301 0.0415588 
0.604618 0.716606 0.043577 
0.588763 0.706194 0.044791 
0.572429 0.693428 0.0463797 
0.598094 0.684493 0.0438238 
0.572429 0.693428 0.0463797 
0.555614 0.678308 0.0483432 
0.581298 0.671058 0.0455184 
0.598094 0.684493 0.0438238 
0.581298 0.671058 0.0455184 
0.605546 0.661501 0.0413459 
0.581298 0.671058 0.0455184 
0.598094 0.684493 0.0438238 
0.572429 0.693428 0.0463797 
0.638623 0.682645 0.0388691 
0.622324 0.67325 0.0399201 
0.645119 0.659699 0.0346687 
0.622324 0.67325 0.0399201 
0.605546 0.661501 0.0413459 
0.628358 0.649635 0.0358256 
0.645119 0.659699 0.0346687 
0.628358 0.649635 0.0358256 
0.649734 0.635461 0.0289576 
0.628358 0.649635 0.0358256 
0.645119 0.659699 0.0346687 
0.622324 0.67325 0.0399201 
0.605546 0.661501 0.0413459 
0.622324 0.67325 0.0399201 
0.598094 0.684493 0.0438238 
0.622324 0.67325 0.0399201 
0.638623 0.682645 0.0388691 
0.614411 0.695573 0.0425039 
0.598094 0.684493 0.0438238 
0.614411 0.695573 0.0425039 
0.588763 0.706194 0.044791 
0.614411 0.695573 0.0425039 
0.598094 0.684493 0.0438238 
0.622324 0.67325 0.0399201 
0.713827 0.654854 0.0276539 
0.698523 0.653536 0.0274177 
0.718409 0.631999 0.0200084 
0.698523 0.653536 0.0274177 
0.68274 0.649865 0.0275562 
0.702644 0.630013 0.0198781 
0.718409 0.631999 0.0200084 
0.702644 0.630013 0.0198781 
0.721112 0.607853 0.0108523 
0.702644 0.630013 0.0198781 
0.718409 0.631999 0.0200084 
0.698523 0.653536 0.0274177 
0.68274 0.649865 0.0275562 
0.666477 0.64384 0.0280695 
0.686399 0.625673 0.0201226 
0.666477 0.64384 0.0280695 
0.649734 0.635461 0.0289576 
0.669675 0.61898 0.0207418 
0.686399 0.625673 0.0201226 
0.669675 0.61898 0.0207418 
0.688179 0.600191 0.0111782 
0.669675 0.61898 0.0207418 
0.686399 0.625673 0.0201226 
0.666477 0.64384 0.0280695 
0.721112 0.607853 0.0108523 
0.704885 0.605198 0.0108278 
0.721936 0.582416 0.000185359 
0.704885 0.605198 0.0108278 
0.688179 0.600191 0.0111782 
0.705247 0.579093 0.000266839 
0.721936 0.582416 0.000185359 
0.705247 0.579093 0.000266839 
0.72088 0.555688 -0.0119923 
0.705247 0.579093 0.000266839 
0.721936 0.582416 0.000185359 
0.704885 0.605198 0.0108278 
0.688179 0.600191 0.0111782 
0.704885 0.605198 0.0108278 
0.686399 0.625673 0.0201226 
0.704885 0.605198 0.0108278 
0.721112 0.607853 0.0108523 
0.702644 0.630013 0.0198781 
0.686399 0.625673 0.0201226 
0.702644 0.630013 0.0198781 
0.68274 0.649865 0.0275562 
0.702644 0.630013 0.0198781 
0.686399 0.625673 0.0201226 
0.704885 0.605198 0.0108278 
0.649734 0.635461 0.0289576 
0.666477 0.64384 0.0280695 
0.645119 0.659699 0.0346687 
0.666477 0.64384 0.0280695 
0.68274 0.649865 0.0275562 
0.661399 0.667409 0.0338865 
0.645119 0.659699 0.0346687 
0.661399 0.667409 0.0338865 
0.638623 0.682645 0.0388691 
0.661399 0.667409 0.0338865 
0.645119 0.659699 0.0346687 
0.666477 0.64384 0.0280695 
0.68274 0.649865 0.0275562 
0.698523 0.653536 0.0274177 
0.677201 0.672765 0.0334791 
0.698523 0.653536 0.0274177 
0.713827 0.654854 0.0276539 
0.692523 0.675768 0.0334465 
0.677201 0.672765 0.0334791 
0.692523 0.675768 0.0334465 
0.669782 0.694375 0.0378914 
0.692523 0.675768 0.0334465 
0.677201 0.672765 0.0334791 
0.698523 0.653536 0.0274177 
0.638623 0.682645 0.0388691 
0.654443 0.689687 0.0381929 
0.630248 0.704301 0.0415588 
0.654443 0.689687 0.0381929 
0.669782 0.694375 0.0378914 
0.645606 0.710674 0.0409884 
0.630248 0.704301 0.0415588 
0.645606 0.710674 0.0409884 
0.619994 0.724665 0.0427378 
0.645606 0.710674 0.0409884 
0.630248 0.704301 0.0415588 
0.654443 0.689687 0.0381929 
0.669782 0.694375 0.0378914 
0.654443 0.689687 0.0381929 
0.677201 0.672765 0.0334791 
0.654443 0.689687 0.0381929 
0.638623 0.682645 0.0388691 
0.661399 0.667409 0.0338865 
0.677201 0.672765 0.0334791 
0.661399 0.667409 0.0338865 
0.68274 0.649865 0.0275562 
0.661399 0.667409 0.0338865 
0.677201 0.672765 0.0334791 
0.654443 0.689687 0.0381929 

CELLS 256 1024
3 0 1 2
3 3 4 5
3 6 7 8
3 9 10 11
3 12 13 14
3 15 16 17
3 18 19 20
3 21 22 23
3 24 25 26
3 27 28 29
3 30 31 32
3 33 34 35
3 36 37 38
3 39 40 41
3 42 43 44
3 45 46 47
3 48 49 50
3 51 52 53
3 54 55 56
3 57 58 59
3 60 61 62
3 63 64 65
3 66 67 68
3 69 70 71
3 72 73 74
3 75 76 77
3 78 79 80
3 81 82 83
3 84 85 86
3 87 88 89
3 90 91 92
3 93 94 95
3 96 97 98
3 99 100 101
3 102 103 104
3 105 106 107
3 108 109 110
3 111 112 113
3 114 115 116
3 117 118 119
3 120 121 122
3 123 124 125
3 126 127 128
3 129 130 131
3 132 133 134
3 135 136 137
3 138 139 140
3 141 142 143
3 144 145 146
3 147 148 149
3 150 151 152
3 153 154 155
3 156 157 158
3 159 160 161
3 162 163 164
3 165 166 167
3 168 169 170
3 171 172 173
3 174 175 176
3 177 178 179
3 180 181 182
3 183 184 185
3 186 187 188
3 189 190 191
3 192 193 194
3 195 196 197
3 198 199 200
3 201 202 203
3 204 205 206
3 207 208 209
3 210 211 212
3 213 214 215
3 216 217 218
3 219 220 221
3 222 223 224
3 225 226 227
3 228 229 230
3 231 232 233
3 234 235 236
3 237 238 239
3 240 241 242
3 243 244 245
3 246 247 248
3 249 250 251
3 252 253 254
3 255 256 257
3 258 259 260
3 261 262 263
3 264 265 266
3 267 268 269
3 270 271 272
3 273 274 275
3 276 277 278
3 279 280 281
3 282 283 284
3 285 286 287
3 288 289 290
3 291 292 293
3 294 295 296
3 297 298 299
3 300 301 302
3 303 304 305
3 306 307 308
3 309 310 311
3 312 313 314
3 315 316 317
3 318 319 320
3 321 322 323
3 324 325 326
3 327 328 329
3 330 331 332
3 333 334 335
3 336 337 338
3 339 340 341
3 342 343 344
3 345 346 347
3 348 349 350
3 351 352 353
3 354 355 356
3 357 358 359
3 360 361 362
3 363 364 365
3 366 367 368
3 369 370 371
3 372 373 374
3 375 376 377
3 378 379 380
3 381 382 383
3 384 385 386
3 387 388 389
3 390 391 392
3 393 394 395
3 396 397 398
3 399 400 401
3 402 403 404
3 405 406 407
3 408 409 410
3 411 412 413
3 414 415 416
3 417 418 419
3 420 421 422
3 423 424 425
3 426 427 428
3 429 430 431
3 432 433 434
3 435 436 437
3 438 439 440
3 441 442 443
3 444 445 446
3 447 448 449
3 450 451 452
3 453 454 455
3 456 457 458
3 459 460 461
3 462 463 464
3 465 466 467
3 468 469 470
3 471 472 473
3 474 475 476
3 477 478 479
3 480 481 482
3 483 484 485
3 486 487 488
3 489 490 491
3 492 493 494
3 495 496 497
3 498 499 500
3 501 502 503
3 504 505 506
3 507 508 509
3 510 511 512
3 513 514 515
3 516 517 518
3 519 520 521
3 522 523 524
3 525 526 527
3 528 529 530
3 531 532 533
3 534 535 536
3 537 538 539
3 540 541 542
3 543 544 545
3 546 547 548
3 549 550 551
3 552 553 554
3 555 556 557
3 558 559 560
3 561 562 563
3 564 565 566
3 567 568 569
3 570 571 572
3 573 574 575
3 576 577 578
3 579 580 581
3 582 583 584
3 585 586 587
3 588 589 590
3 591 592 593
3 594 595 596
3 597 598 599
3 600 601 602
3 603 604 605
3 606 607 608
3 609 610 611
3 612 613 614
3 615 616 617
3 618 619 620
3 621 622 623
3 624 625 626
3 627 628 629
3 630 631 632
3 633 634 635
3 636 637 638
3 639 640 641
3 642 643 644
3 645 646 647
3 648 649 650
3 651 652 653
3 654 655 656
3 657 658 659
3 660 661 662
3 663 664 665
3 666 667 668
3 669 670 671
3 672 673 674
3 675 676 677
3 678 679 680
3 681 682 683
3 684 685 686
3 687 688 689
3 690 691 692
3 693 694 695
3 696 697 698
3 699 700 701
3 702 703 704
3 705 706 707
3 708 709 710
3 711 712 713
3 714 715 716
3 717 718 719
3 720 721 722
3 723 724 725
3 726 727 728
3 729 730 731
3 732 733 734
3 735 736 737
3 738 739 740
3 741 742 743
3 744 745 746
3 747 748 749
3 750 751 752
3 753 754 755
3 756 757 758
3 759 760 761
3 762 763 764
3 765 766 767

CELL_TYPES 256
5
5
5
5
5
5
5
5
5
5
5
5
5
5
5
5
5
5
5
5
5
5
5
5
5
5
5
5
5
5
5
5
5
5
5
5
5
5
5
5
5
5
5
5
5
5
5
5
5
5
5
5
5
5
5
5
5
5
5
5
5
5
5
5
5
5
5
5
5
5
5
5
5
5
5
5
5
5
5
5
5
5
5
5
5
5
5
5
5
5
5
5
5
5
5
5
5
5
5
5
5
5
5
5
5
5
5
5
5
5
5
5
5
5
5
5
5
5
5
5
5
5
5
5
5
5
5
5
5
5
5
5
5
5
5
5
5
5
5
5
5
5
5
5
5
5
5
5
5
5
5
5
5
5
5
5
5
5
5
5
5
5
5
5
5
5
5
5
5
5
5
5
5
5
5
5
5
5
5
5
5
5
5
5
5
5
5
5
5
5
5
5
5
5
5
5
5
5
5
5
5
5
5
5
5
5
5
5
5
5
5
5
5
5
5
5
5
5
5
5
5
5
5
5
5
5
5
5
5
5
5
5
5
5
5
5
5
5
5
5
5
5
5
5
5
5
5
5
5
5
5
5
5
5
5
5

CELL_DATA 256
FIELD FieldData 2
material 1 256 int
1
1
1
1
1
1
1
1
1
1
1
1
1
1
1
1
1
1
1
1
1
1
1
1
1
1
1
1
1
1
1
1
1
1
1
1
1
1
1
1
1
1
1
1
1
1
1
1
1
1
1
1
1
1
1
1
1
1
1
1
1
1
1
1
1
1
1
1
1
1
1
1
1
1
1
1
1
1
1
1
1
1
1
1
1
1
1
1
1
1
1
1
1
1
1
1
1
1
1
1
1
1
1
1
1
1
1
1
1
1
1
1
1
1
1
1
1
1
1
1
1
1
1
1
1
1
1
1
1
1
1
1
1
1
1
1
1
1
1
1
1
1
1
1
1
1
1
1
1
1
1
1
1
1
1
1
1
1
1
1
1
1
1
1
1
1
1
1
1
1
1
1
1
1
1
1
1
1
1
1
1
1
1
1
1
1
1
1
1
1
1
1
1
1
1
1
1
1
1
1
1
1
1
1
1
1
1
1
1
1
1
1
1
1
1
1
1
1
1
1
1
1
1
1
1
1
1
1
1
1
1
1
1
1
1
1
1
1
1
1
1
1
1
1
1
1
1
1
1
1
1
1
1
1
1
1
elIndex 1 256 int
85
86
87
88
89
90
91
92
93
94
95
96
97
98
99
100
101
102
103
104
105
106
107
108
109
110
111
112
113
114
115
116
117
118
119
120
121
122
123
124
125
126
127
128
129
130
131
132
133
134
135
136
137
138
139
140
141
142
143
144
145
146
147
148
149
150
151
152
153
154
155
156
157
158
159
160
161
162
163
164
165
166
167
168
169
170
171
172
173
174
175
176
177
178
179
180
181
182
183
184
185
186
187
188
189
190
191
192
193
194
195
196
197
198
199
200
201
202
203
204
205
206
207
208
209
210
211
212
213
214
215
216
217
218
219
220
221
222
223
224
225
226
227
228
229
230
231
232
233
234
235
236
237
238
239
240
241
242
243
244
245
246
247
248
249
250
251
252
253
254
255
256
257
258
259
260
261
262
263
264
265
266
267
268
269
270
271
272
273
274
275
276
277
278
279
280
281
282
283
284
285
286
287
288
289
290
291
292
293
294
295
296
297
298
299
300
301
302
303
304
305
306
307
308
309
310
311
312
313
314
315
316
317
318
319
320
321
322
323
324
325
326
327
328
329
330
331
332
333
334
335
336
337
338
339
340
