# vtk DataFile Version 3.0
TPZGeoMesh VTK Visualization
ASCII

DATASET UNSTRUCTURED_GRID
POINTS 1024 float
-1.8 2.20436e-16 0 
-1.76481 -0.351042 0.0314079 
-1.73247 -0.340191 0.232228 
-1.77274 2.17098e-16 0.207055 
-1.76481 -0.351042 0.0314079 
-1.6607 -0.687886 0.0627673 
-1.62704 -0.664604 0.257152 
-1.73247 -0.340191 0.232228 
-1.73247 -0.340191 0.232228 
-1.62704 -0.664604 0.257152 
-1.54995 -0.624253 0.435711 
-1.65138 -0.320061 0.417999 
-1.77274 2.17098e-16 0.207055 
-1.73247 -0.340191 0.232228 
-1.65138 -0.320061 0.417999 
-1.69282 2.07311e-16 0.4 
-1.6607 -0.687886 0.0627673 
-1.49203 -0.996946 0.0940299 
-1.46113 -0.960807 0.2818 
-1.62704 -0.664604 0.257152 
-1.49203 -0.996946 0.0940299 
-1.26583 -1.26583 0.125148 
-1.24175 -1.2176 0.306147 
-1.46113 -0.960807 0.2818 
-1.46113 -0.960807 0.2818 
-1.24175 -1.2176 0.306147 
-1.1874 -1.14166 0.470228 
-1.39308 -0.901442 0.453125 
-1.62704 -0.664604 0.257152 
-1.46113 -0.960807 0.2818 
-1.39308 -0.901442 0.453125 
-1.54995 -0.624253 0.435711 
-1.54995 -0.624253 0.435711 
-1.39308 -0.901442 0.453125 
-1.2918 -0.822469 0.598007 
-1.43412 -0.569439 0.587458 
-1.39308 -0.901442 0.453125 
-1.1874 -1.14166 0.470228 
-1.10567 -1.04238 0.608325 
-1.2918 -0.822469 0.598007 
-1.2918 -0.822469 0.598007 
-1.10567 -1.04238 0.608325 
-1.00102 -0.925336 0.712805 
-1.16314 -0.728579 0.70799 
-1.43412 -0.569439 0.587458 
-1.2918 -0.822469 0.598007 
-1.16314 -0.728579 0.70799 
-1.28668 -0.503599 0.703054 
-1.69282 2.07311e-16 0.4 
-1.65138 -0.320061 0.417999 
-1.52679 -0.292028 0.576683 
-1.56569 1.91741e-16 0.565685 
-1.65138 -0.320061 0.417999 
-1.54995 -0.624253 0.435711 
-1.43412 -0.569439 0.587458 
-1.52679 -0.292028 0.576683 
-1.52679 -0.292028 0.576683 
-1.43412 -0.569439 0.587458 
-1.28668 -0.503599 0.703054 
-1.36677 -0.257945 0.697997 
-1.56569 1.91741e-16 0.565685 
-1.52679 -0.292028 0.576683 
-1.36677 -0.257945 0.697997 
-1.4 1.71451e-16 0.69282 
-1.26583 -1.26583 0.125148 
-0.991486 -1.48386 0.156072 
-0.977976 -1.42546 0.330166 
-1.24175 -1.2176 0.306147 
-0.991486 -1.48386 0.156072 
-0.680371 -1.64256 0.186756 
-0.680553 -1.57691 0.353831 
-0.977976 -1.42546 0.330166 
-0.977976 -1.42546 0.330166 
-0.680553 -1.57691 0.353831 
-0.664456 -1.47935 0.503456 
-0.941264 -1.33649 0.487009 
-1.24175 -1.2176 0.306147 
-0.977976 -1.42546 0.330166 
-0.941264 -1.33649 0.487009 
-1.1874 -1.14166 0.470228 
-0.680371 -1.64256 0.186756 
-0.345303 -1.73595 0.217152 
-0.361422 -1.6668 0.377117 
-0.680553 -1.57691 0.353831 
-0.345303 -1.73595 0.217152 
-3.23462e-16 -1.76085 0.247214 
-0.0332363 -1.69249 0.4 
-0.361422 -1.6668 0.377117 
-0.361422 -1.6668 0.377117 
-0.0332363 -1.69249 0.4 
-0.0626004 -1.59329 0.535304 
-0.367775 -1.56571 0.519558 
-0.680553 -1.57691 0.353831 
-0.361422 -1.6668 0.377117 
-0.367775 -1.56571 0.519558 
-0.664456 -1.47935 0.503456 
-0.664456 -1.47935 0.503456 
-0.367775 -1.56571 0.519558 
-0.363831 -1.43752 0.637857 
-0.63267 -1.35483 0.628254 
-0.367775 -1.56571 0.519558 
-0.0626004 -1.59329 0.535304 
-0.0865535 -1.46768 0.647214 
-0.363831 -1.43752 0.637857 
-0.363831 -1.43752 0.637857 
-0.0865535 -1.46768 0.647214 
-0.103989 -1.3213 0.730836 
-0.349723 -1.2883 0.726515 
-0.63267 -1.35483 0.628254 
-0.363831 -1.43752 0.637857 
-0.349723 -1.2883 0.726515 
-0.586712 -1.20963 0.722068 
-1.1874 -1.14166 0.470228 
-0.941264 -1.33649 0.487009 
-0.883099 -1.22178 0.618408 
-1.10567 -1.04238 0.608325 
-0.941264 -1.33649 0.487009 
-0.664456 -1.47935 0.503456 
-0.63267 -1.35483 0.628254 
-0.883099 -1.22178 0.618408 
-0.883099 -1.22178 0.618408 
-0.63267 -1.35483 0.628254 
-0.586712 -1.20963 0.722068 
-0.806476 -1.08741 0.717498 
-1.10567 -1.04238 0.608325 
-0.883099 -1.22178 0.618408 
-0.806476 -1.08741 0.717498 
-1.00102 -0.925336 0.712805 
-1.00102 -0.925336 0.712805 
-0.806476 -1.08741 0.717498 
-0.715509 -0.940409 0.779102 
-0.879328 -0.796977 0.777896 
-0.806476 -1.08741 0.717498 
-0.586712 -1.20963 0.722068 
-0.528994 -1.05093 0.780274 
-0.715509 -0.940409 0.779102 
-0.715509 -0.940409 0.779102 
-0.528994 -1.05093 0.780274 
-0.462716 -0.886507 0.8 
-0.615232 -0.788346 0.8 
-0.879328 -0.796977 0.777896 
-0.715509 -0.940409 0.779102 
-0.615232 -0.788346 0.8 
-0.747508 -0.664252 0.8 
-0.586712 -1.20963 0.722068 
-0.349723 -1.2883 0.726515 
-0.326271 -1.12509 0.781413 
-0.528994 -1.05093 0.780274 
-0.349723 -1.2883 0.726515 
-0.103989 -1.3213 0.730836 
-0.11432 -1.16071 0.782518 
-0.326271 -1.12509 0.781413 
-0.326271 -1.12509 0.781413 
-0.11432 -1.16071 0.782518 
-0.117537 -0.993068 0.8 
-0.294979 -0.955504 0.8 
-0.528994 -1.05093 0.780274 
-0.326271 -1.12509 0.781413 
-0.294979 -0.955504 0.8 
-0.462716 -0.886507 0.8 
-0.462716 -0.886507 0.8 
-0.294979 -0.955504 0.8 
-0.25797 -0.78737 0.781413 
-0.391728 -0.724297 0.780274 
-0.294979 -0.955504 0.8 
-0.117537 -0.993068 0.8 
-0.114223 -0.825809 0.782518 
-0.25797 -0.78737 0.781413 
-0.25797 -0.78737 0.781413 
-0.114223 -0.825809 0.782518 
-0.105532 -0.666305 0.730836 
-0.217898 -0.628364 0.726515 
-0.391728 -0.724297 0.780274 
-0.25797 -0.78737 0.781413 
-0.217898 -0.628364 0.726515 
-0.320336 -0.572001 0.722068 
-0.747508 -0.664252 0.8 
-0.615232 -0.788346 0.8 
-0.511347 -0.638908 0.779102 
-0.61318 -0.534205 0.777896 
-0.615232 -0.788346 0.8 
-0.462716 -0.886507 0.8 
-0.391728 -0.724297 0.780274 
-0.511347 -0.638908 0.779102 
-0.511347 -0.638908 0.779102 
-0.391728 -0.724297 0.780274 
-0.320336 -0.572001 0.722068 
-0.409925 -0.499495 0.717498 
-0.61318 -0.534205 0.777896 
-0.511347 -0.638908 0.779102 
-0.409925 -0.499495 0.717498 
-0.484232 -0.413573 0.712805 
-1.4 1.71451e-16 0.69282 
-1.36677 -0.257945 0.697997 
-1.18169 -0.220013 0.774079 
-1.20706 1.47822e-16 0.772741 
-1.36677 -0.257945 0.697997 
-1.28668 -0.503599 0.703054 
-1.11672 -0.430767 0.775385 
-1.18169 -0.220013 0.774079 
-1.18169 -0.220013 0.774079 
-1.11672 -0.430767 0.775385 
-0.934748 -0.355311 0.8 
-0.983552 -0.180626 0.8 
-1.20706 1.47822e-16 0.772741 
-1.18169 -0.220013 0.774079 
-0.983552 -0.180626 0.8 
-1 1.22465e-16 0.8 
-1.28668 -0.503599 0.703054 
-1.16314 -0.728579 0.70799 
-1.01468 -0.625229 0.776657 
-1.11672 -0.430767 0.775385 
-1.16314 -0.728579 0.70799 
-1.00102 -0.925336 0.712805 
-0.879328 -0.796977 0.777896 
-1.01468 -0.625229 0.776657 
-1.01468 -0.625229 0.776657 
-0.879328 -0.796977 0.777896 
-0.747508 -0.664252 0.8 
-0.855195 -0.518307 0.8 
-1.11672 -0.430767 0.775385 
-1.01468 -0.625229 0.776657 
-0.855195 -0.518307 0.8 
-0.934748 -0.355311 0.8 
-0.934748 -0.355311 0.8 
-0.855195 -0.518307 0.8 
-0.694197 -0.413773 0.776657 
-0.752067 -0.281654 0.775385 
-0.855195 -0.518307 0.8 
-0.747508 -0.664252 0.8 
-0.61318 -0.534205 0.777896 
-0.694197 -0.413773 0.776657 
-0.694197 -0.413773 0.776657 
-0.61318 -0.534205 0.777896 
-0.484232 -0.413573 0.712805 
-0.541373 -0.317304 0.70799 
-0.752067 -0.281654 0.775385 
-0.694197 -0.413773 0.776657 
-0.541373 -0.317304 0.70799 
-0.580058 -0.213995 0.703054 
-1 1.22465e-16 0.8 
-0.983552 -0.180626 0.8 
-0.785232 -0.142214 0.774079 
-0.792945 9.71077e-17 0.772741 
-0.983552 -0.180626 0.8 
-0.934748 -0.355311 0.8 
-0.752067 -0.281654 0.775385 
-0.785232 -0.142214 0.774079 
-0.785232 -0.142214 0.774079 
-0.752067 -0.281654 0.775385 
-0.580058 -0.213995 0.703054 
-0.599617 -0.107078 0.697997 
-0.792945 9.71077e-17 0.772741 
-0.785232 -0.142214 0.774079 
-0.599617 -0.107078 0.697997 
-0.6 7.34788e-17 0.69282 
-3.23462e-16 -1.76085 0.247214 
0.341516 -1.71692 0.276894 
0.291167 -1.65393 0.422454 
-0.0332363 -1.69249 0.4 
0.341516 -1.71692 0.276894 
0.665526 -1.60672 0.306147 
0.599288 -1.5536 0.444456 
0.291167 -1.65393 0.422454 
0.291167 -1.65393 0.422454 
0.599288 -1.5536 0.444456 
0.527464 -1.47416 0.565685 
0.239549 -1.56204 0.550684 
-0.0332363 -1.69249 0.4 
0.291167 -1.65393 0.422454 
0.239549 -1.56204 0.550684 
-0.0626004 -1.59329 0.535304 
0.665526 -1.60672 0.306147 
0.9592 -1.43554 0.334928 
0.87947 -1.39641 0.465982 
0.599288 -1.5536 0.444456 
0.9592 -1.43554 0.334928 
1.21114 -1.21114 0.363192 
1.12135 -1.18943 0.487009 
0.87947 -1.39641 0.465982 
0.87947 -1.39641 0.465982 
1.12135 -1.18943 0.487009 
1.01983 -1.14765 0.594516 
0.790672 -1.33396 0.580299 
0.599288 -1.5536 0.444456 
0.87947 -1.39641 0.465982 
0.790672 -1.33396 0.580299 
0.527464 -1.47416 0.565685 
0.527464 -1.47416 0.565685 
0.790672 -1.33396 0.580299 
0.696302 -1.25053 0.673774 
0.4531 -1.37155 0.665176 
0.790672 -1.33396 0.580299 
1.01983 -1.14765 0.594516 
0.910287 -1.08724 0.682112 
0.696302 -1.25053 0.673774 
0.696302 -1.25053 0.673774 
0.910287 -1.08724 0.682112 
0.796585 -1.01046 0.746864 
0.599886 -1.14931 0.743048 
0.4531 -1.37155 0.665176 
0.696302 -1.25053 0.673774 
0.599886 -1.14931 0.743048 
0.379154 -1.2499 0.739104 
-0.0626004 -1.59329 0.535304 
0.239549 -1.56204 0.550684 
0.189051 -1.44512 0.656321 
-0.0865535 -1.46768 0.647214 
0.239549 -1.56204 0.550684 
0.527464 -1.47416 0.565685 
0.4531 -1.37155 0.665176 
0.189051 -1.44512 0.656321 
0.189051 -1.44512 0.656321 
0.4531 -1.37155 0.665176 
0.379154 -1.2499 0.739104 
0.14182 -1.30813 0.735033 
-0.0865535 -1.46768 0.647214 
0.189051 -1.44512 0.656321 
0.14182 -1.30813 0.735033 
-0.103989 -1.3213 0.730836 
1.21114 -1.21114 0.363192 
1.41183 -0.943356 0.390897 
1.31629 -0.94161 0.507515 
1.12135 -1.18943 0.487009 
1.41183 -0.943356 0.390897 
1.55407 -0.643716 0.417999 
1.45764 -0.663325 0.527477 
1.31629 -0.94161 0.507515 
1.31629 -0.94161 0.507515 
1.45764 -0.663325 0.527477 
1.34623 -0.669371 0.621717 
1.20706 -0.923075 0.608325 
1.12135 -1.18943 0.487009 
1.31629 -0.94161 0.507515 
1.20706 -0.923075 0.608325 
1.01983 -1.14765 0.594516 
1.55407 -0.643716 0.417999 
1.63318 -0.32486 0.444456 
1.54103 -0.365971 0.546874 
1.45764 -0.663325 0.527477 
1.63318 -0.32486 0.444456 
1.64721 -4.03451e-16 0.470228 
1.56448 -0.0614685 0.565685 
1.54103 -0.365971 0.546874 
1.54103 -0.365971 0.546874 
1.56448 -0.0614685 0.565685 
1.4657 -0.115353 0.647214 
1.43314 -0.396604 0.634683 
1.45764 -0.663325 0.527477 
1.54103 -0.365971 0.546874 
[...]
CELL_DATA 256
FIELD FieldData 2
material 1 256 int
1
1
1
1
1
1
1
1
1
1
1
1
1
1
1
1
1
1
1
1
1
1
1
1
1
1
1
1
1
1
1
1
1
1
1
1
1
1
1
1
1
1
1
1
1
1
1
1
1
1
1
1
1
1
1
1
1
1
1
1
1
1
1
1
1
1
1
1
1
1
1
1
1
1
1
1
1
1
1
1
1
1
1
1
1
1
1
1
1
1
1
1
1
1
1
1
1
1
1
1
1
1
1
1
1
1
1
1
1
1
1
1
1
1
1
1
1
1
1
1
1
1
1
1
1
1
1
1
1
1
1
1
1
1
1
1
1
1
1
1
1
1
1
1
1
1
1
1
1
1
1
1
1
1
1
1
1
1
1
1
1
1
1
1
1
1
1
1
1
1
1
1
1
1
1
1
1
1
1
1
1
1
1
1
1
1
1
1
1
1
1
1
1
1
1
1
1
1
1
1
1
1
1
1
1
1
1
1
1
1
1
1
1
1
1
1
1
1
1
1
1
1
1
1
1
1
1
1
1
1
1
1
1
1
1
1
1
1
1
1
1
1
1
1
1
1
1
1
1
1
1
1
1
1
1
1
elIndex 1 256 int
85
86
87
88
89
90
91
92
93
94
95
96
97
98
99
100
101
102
103
104
105
106
107
108
109
110
111
112
113
114
115
116
117
118
119
120
121
122
123
124
125
126
127
128
129
130
131
132
133
134
135
136
137
138
139
140
141
142
143
144
145
146
147
148
149
150
151
152
153
154
155
156
157
158
159
160
161
162
163
164
165
166
167
168
169
170
171
172
173
174
175
176
177
178
179
180
181
182
183
184
185
186
187
188
189
190
191
192
193
194
195
196
197
198
199
200
201
202
203
204
205
206
207
208
209
210
211
212
213
214
215
216
217
218
219
220
221
222
223
224
225
226
227
228
229
230
231
232
233
234
235
236
237
238
239
240
241
242
243
244
245
246
247
248
249
250
251
252
253
254
255
256
257
258
259
260
261
262
263
264
265
266
267
268
269
270
271
272
273
274
275
276
277
278
279
280
281
282
283
284
285
286
287
288
289
290
291
292
293
294
295
296
297
298
299
300
301
302
303
304
305
306
307
308
309
310
311
312
313
314
315
316
317
318
319
320
321
322
323
324
325
326
327
328
329
330
331
332
333
334
335
336
337
338
339
340
