# vtk DataFile Version 3.0
TPZGeoMesh VTK Visualization
ASCII

DATASET UNSTRUCTURED_GRID
POINTS 32 float
0 0 0 
0.125 1 0 
0.125 1 0 
0.25 -3.67394e-16 0 
0.25 -3.67394e-16 0 
0.375 -1 0 
0.375 -1 0 
0.5 2.44929e-16 0 
0.5 2.44929e-16 0 
0.625 1 0 
0.625 1 0 
0.75 -1.22465e-16 0 
0.75 -1.22465e-16 0 
0.875 -1 0 
0.875 -1 0 
1 0 0 
1 0 0 
1.125 1 0 
1.125 1 0 
1.25 1.22465e-16 0 
1.25 1.22465e-16 0 
1.375 -1 0 
1.375 -1 0 
1.5 -2.44929e-16 0 
1.5 -2.44929e-16 0 
1.625 1 0 
1.625 1 0 
1.75 3.67394e-16 0 
1.75 3.67394e-16 0 
1.875 -1 0 
1.875 -1 0 
2 0 0 

CELLS 16 48
2 0 1
2 2 3
2 4 5
2 6 7
2 8 9
2 10 11
2 12 13
2 14 15
2 16 17
2 18 19
2 20 21
2 22 23
2 24 25
2 26 27
2 28 29
2 30 31

CELL_TYPES 16
3
3
3
3
3
3
3
3
3
3
3
3
3
3
3
3

CELL_DATA 16
FIELD FieldData 2
material 1 16 int
1
1
1
1
1
1
1
1
1
1
1
1
1
1
1
1
elIndex 1 16 int
15
16
17
18
19
20
21
22
23
24
25
26
27
28
29
30
