# vtk DataFile Version 3.0
Arquivo gerado por PZ
ASCII

DATASET UNSTRUCTURED_GRID
POINTS 289 float
1.6 0 0
1.6 0.1 0
1.6 0.2 0
1.6 0.3 0
1.6 0.4 0
1.6 0.5 0
1.6 0.6 0
1.6 0.7 0
1.6 0.8 0
1.6 0.9 0
1.6 1 0
1.6 1.1 0
1.6 1.2 0
1.6 1.3 0
1.6 1.4 0
1.6 1.5 0
1.6 1.6 0
1.7 0 0
1.7 0.1 0
1.7 0.2 0
1.7 0.3 0
1.7 0.4 0
1.7 0.5 0
1.7 0.6 0
1.7 0.7 0
1.7 0.8 0
1.7 0.9 0
1.7 1 0
1.7 1.1 0
1.7 1.2 0
1.7 1.3 0
1.7 1.4 0
1.7 1.5 0
1.7 1.6 0
1.8 0 0
1.8 0.1 0
1.8 0.2 0
1.8 0.3 0
1.8 0.4 0
1.8 0.5 0
1.8 0.6 0
1.8 0.7 0
1.8 0.8 0
1.8 0.9 0
1.8 1 0
1.8 1.1 0
1.8 1.2 0
1.8 1.3 0
1.8 1.4 0
1.8 1.5 0
1.8 1.6 0
1.9 0 0
1.9 0.1 0
1.9 0.2 0
1.9 0.3 0
1.9 0.4 0
1.9 0.5 0
1.9 0.6 0
1.9 0.7 0
1.9 0.8 0
1.9 0.9 0
1.9 1 0
1.9 1.1 0
1.9 1.2 0
1.9 1.3 0
1.9 1.4 0
1.9 1.5 0
1.9 1.6 0
2 0 0
2 0.1 0
2 0.2 0
2 0.3 0
2 0.4 0
2 0.5 0
2 0.6 0
2 0.7 0
2 0.8 0
2 0.9 0
2 1 0
2 1.1 0
2 1.2 0
2 1.3 0
2 1.4 0
2 1.5 0
2 1.6 0
2.1 0 0
2.1 0.1 0
2.1 0.2 0
2.1 0.3 0
2.1 0.4 0
2.1 0.5 0
2.1 0.6 0
2.1 0.7 0
2.1 0.8 0
2.1 0.9 0
2.1 1 0
2.1 1.1 0
2.1 1.2 0
2.1 1.3 0
2.1 1.4 0
2.1 1.5 0
2.1 1.6 0
2.2 0 0
2.2 0.1 0
2.2 0.2 0
2.2 0.3 0
2.2 0.4 0
2.2 0.5 0
2.2 0.6 0
2.2 0.7 0
2.2 0.8 0
2.2 0.9 0
2.2 1 0
2.2 1.1 0
2.2 1.2 0
2.2 1.3 0
2.2 1.4 0
2.2 1.5 0
2.2 1.6 0
2.3 0 0
2.3 0.1 0
2.3 0.2 0
2.3 0.3 0
2.3 0.4 0
2.3 0.5 0
2.3 0.6 0
2.3 0.7 0
2.3 0.8 0
2.3 0.9 0
2.3 1 0
2.3 1.1 0
2.3 1.2 0
2.3 1.3 0
2.3 1.4 0
2.3 1.5 0
2.3 1.6 0
2.4 0 0
2.4 0.1 0
2.4 0.2 0
2.4 0.3 0
2.4 0.4 0
2.4 0.5 0
2.4 0.6 0
2.4 0.7 0
2.4 0.8 0
2.4 0.9 0
2.4 1 0
2.4 1.1 0
2.4 1.2 0
2.4 1.3 0
2.4 1.4 0
2.4 1.5 0
2.4 1.6 0
2.5 0 0
2.5 0.1 0
2.5 0.2 0
2.5 0.3 0
2.5 0.4 0
2.5 0.5 0
2.5 0.6 0
2.5 0.7 0
2.5 0.8 0
2.5 0.9 0
2.5 1 0
2.5 1.1 0
2.5 1.2 0
2.5 1.3 0
2.5 1.4 0
2.5 1.5 0
2.5 1.6 0
2.6 0 0
2.6 0.1 0
2.6 0.2 0
2.6 0.3 0
2.6 0.4 0
2.6 0.5 0
2.6 0.6 0
2.6 0.7 0
2.6 0.8 0
2.6 0.9 0
2.6 1 0
2.6 1.1 0
2.6 1.2 0
2.6 1.3 0
2.6 1.4 0
2.6 1.5 0
2.6 1.6 0
2.7 0 0
2.7 0.1 0
2.7 0.2 0
2.7 0.3 0
2.7 0.4 0
2.7 0.5 0
2.7 0.6 0
2.7 0.7 0
2.7 0.8 0
2.7 0.9 0
2.7 1 0
2.7 1.1 0
2.7 1.2 0
2.7 1.3 0
2.7 1.4 0
2.7 1.5 0
2.7 1.6 0
2.8 0 0
2.8 0.1 0
2.8 0.2 0
2.8 0.3 0
2.8 0.4 0
2.8 0.5 0
2.8 0.6 0
2.8 0.7 0
2.8 0.8 0
2.8 0.9 0
2.8 1 0
2.8 1.1 0
2.8 1.2 0
2.8 1.3 0
2.8 1.4 0
2.8 1.5 0
2.8 1.6 0
2.9 0 0
2.9 0.1 0
2.9 0.2 0
2.9 0.3 0
2.9 0.4 0
2.9 0.5 0
2.9 0.6 0
2.9 0.7 0
2.9 0.8 0
2.9 0.9 0
2.9 1 0
2.9 1.1 0
2.9 1.2 0
2.9 1.3 0
2.9 1.4 0
2.9 1.5 0
2.9 1.6 0
3 0 0
3 0.1 0
3 0.2 0
3 0.3 0
3 0.4 0
3 0.5 0
3 0.6 0
3 0.7 0
3 0.8 0
3 0.9 0
3 1 0
3 1.1 0
3 1.2 0
3 1.3 0
3 1.4 0
3 1.5 0
3 1.6 0
3.1 0 0
3.1 0.1 0
3.1 0.2 0
3.1 0.3 0
3.1 0.4 0
3.1 0.5 0
3.1 0.6 0
3.1 0.7 0
3.1 0.8 0
3.1 0.9 0
3.1 1 0
3.1 1.1 0
3.1 1.2 0
3.1 1.3 0
3.1 1.4 0
3.1 1.5 0
3.1 1.6 0
3.2 0 0
3.2 0.1 0
3.2 0.2 0
3.2 0.3 0
3.2 0.4 0
3.2 0.5 0
3.2 0.6 0
3.2 0.7 0
3.2 0.8 0
3.2 0.9 0
3.2 1 0
3.2 1.1 0
3.2 1.2 0
3.2 1.3 0
3.2 1.4 0
3.2 1.5 0
3.2 1.6 0

CELLS 256 1280
4 0 17 18 1
4 1 18 19 2
4 2 19 20 3
4 3 20 21 4
4 4 21 22 5
4 5 22 23 6
4 6 23 24 7
4 7 24 25 8
4 8 25 26 9
4 9 26 27 10
4 10 27 28 11
4 11 28 29 12
4 12 29 30 13
4 13 30 31 14
4 14 31 32 15
4 15 32 33 16
4 17 34 35 18
4 18 35 36 19
4 19 36 37 20
4 20 37 38 21
4 21 38 39 22
4 22 39 40 23
4 23 40 41 24
4 24 41 42 25
4 25 42 43 26
4 26 43 44 27
4 27 44 45 28
4 28 45 46 29
4 29 46 47 30
4 30 47 48 31
4 31 48 49 32
4 32 49 50 33
4 34 51 52 35
4 35 52 53 36
4 36 53 54 37
4 37 54 55 38
4 38 55 56 39
4 39 56 57 40
4 40 57 58 41
4 41 58 59 42
4 42 59 60 43
4 43 60 61 44
4 44 61 62 45
4 45 62 63 46
4 46 63 64 47
4 47 64 65 48
4 48 65 66 49
4 49 66 67 50
4 51 68 69 52
4 52 69 70 53
4 53 70 71 54
4 54 71 72 55
4 55 72 73 56
4 56 73 74 57
4 57 74 75 58
4 58 75 76 59
4 59 76 77 60
4 60 77 78 61
4 61 78 79 62
4 62 79 80 63
4 63 80 81 64
4 64 81 82 65
4 65 82 83 66
4 66 83 84 67
4 68 85 86 69
4 69 86 87 70
4 70 87 88 71
4 71 88 89 72
4 72 89 90 73
4 73 90 91 74
4 74 91 92 75
4 75 92 93 76
4 76 93 94 77
4 77 94 95 78
4 78 95 96 79
4 79 96 97 80
4 80 97 98 81
4 81 98 99 82
4 82 99 100 83
4 83 100 101 84
4 85 102 103 86
4 86 103 104 87
4 87 104 105 88
4 88 105 106 89
4 89 106 107 90
4 90 107 108 91
4 91 108 109 92
4 92 109 110 93
4 93 110 111 94
4 94 111 112 95
4 95 112 113 96
4 96 113 114 97
4 97 114 115 98
4 98 115 116 99
4 99 116 117 100
4 100 117 118 101
4 102 119 120 103
4 103 120 121 104
4 104 121 122 105
4 105 122 123 106
4 106 123 124 107
4 107 124 125 108
4 108 125 126 109
4 109 126 127 110
4 110 127 128 111
4 111 128 129 112
4 112 129 130 113
4 113 130 131 114
4 114 131 132 115
4 115 132 133 116
4 116 133 134 117
4 117 134 135 118
4 119 136 137 120
4 120 137 138 121
4 121 138 139 122
4 122 139 140 123
4 123 140 141 124
4 124 141 142 125
4 125 142 143 126
4 126 143 144 127
4 127 144 145 128
4 128 145 146 129
4 129 146 147 130
4 130 147 148 131
4 131 148 149 132
4 132 149 150 133
4 133 150 151 134
4 134 151 152 135
4 136 153 154 137
4 137 154 155 138
4 138 155 156 139
4 139 156 157 140
4 140 157 158 141
4 141 158 159 142
4 142 159 160 143
4 143 160 161 144
4 144 161 162 145
4 145 162 163 146
4 146 163 164 147
4 147 164 165 148
4 148 165 166 149
4 149 166 167 150
4 150 167 168 151
4 151 168 169 152
4 153 170 171 154
4 154 171 172 155
4 155 172 173 156
4 156 173 174 157
4 157 174 175 158
4 158 175 176 159
4 159 176 177 160
4 160 177 178 161
4 161 178 179 162
4 162 179 180 163
4 163 180 181 164
4 164 181 182 165
4 165 182 183 166
4 166 183 184 167
4 167 184 185 168
4 168 185 186 169
4 170 187 188 171
4 171 188 189 172
4 172 189 190 173
4 173 190 191 174
4 174 191 192 175
4 175 192 193 176
4 176 193 194 177
4 177 194 195 178
4 178 195 196 179
4 179 196 197 180
4 180 197 198 181
4 181 198 199 182
4 182 199 200 183
4 183 200 201 184
4 184 201 202 185
4 185 202 203 186
4 187 204 205 188
4 188 205 206 189
4 189 206 207 190
4 190 207 208 191
4 191 208 209 192
4 192 209 210 193
4 193 210 211 194
4 194 211 212 195
4 195 212 213 196
4 196 213 214 197
4 197 214 215 198
4 198 215 216 199
4 199 216 217 200
4 200 217 218 201
4 201 218 219 202
4 202 219 220 203
4 204 221 222 205
4 205 222 223 206
4 206 223 224 207
4 207 224 225 208
4 208 225 226 209
4 209 226 227 210
4 210 227 228 211
4 211 228 229 212
4 212 229 230 213
4 213 230 231 214
4 214 231 232 215
4 215 232 233 216
4 216 233 234 217
4 217 234 235 218
4 218 235 236 219
4 219 236 237 220
4 221 238 239 222
4 222 239 240 223
4 223 240 241 224
4 224 241 242 225
4 225 242 243 226
4 226 243 244 227
4 227 244 245 228
4 228 245 246 229
4 229 246 247 230
4 230 247 248 231
4 231 248 249 232
4 232 249 250 233
4 233 250 251 234
4 234 251 252 235
4 235 252 253 236
4 236 253 254 237
4 238 255 256 239
4 239 256 257 240
4 240 257 258 241
4 241 258 259 242
4 242 259 260 243
4 243 260 261 244
4 244 261 262 245
4 245 262 263 246
4 246 263 264 247
4 247 264 265 248
4 248 265 266 249
4 249 266 267 250
4 250 267 268 251
4 251 268 269 252
4 252 269 270 253
4 253 270 271 254
4 255 272 273 256
4 256 273 274 257
4 257 274 275 258
4 258 275 276 259
4 259 276 277 260
4 260 277 278 261
4 261 278 279 262
4 262 279 280 263
4 263 280 281 264
4 264 281 282 265
4 265 282 283 266
4 266 283 284 267
4 267 284 285 268
4 268 285 286 269
4 269 286 287 270
4 270 287 288 271

CELL_TYPES 256
9
9
9
9
9
9
9
9
9
9
9
9
9
9
9
9
9
9
9
9
9
9
9
9
9
9
9
9
9
9
9
9
9
9
9
9
9
9
9
9
9
9
9
9
9
9
9
9
9
9
9
9
9
9
9
9
9
9
9
9
9
9
9
9
9
9
9
9
9
9
9
9
9
9
9
9
9
9
9
9
9
9
9
9
9
9
9
9
9
9
9
9
9
9
9
9
9
9
9
9
9
9
9
9
9
9
9
9
9
9
9
9
9
9
9
9
9
9
9
9
9
9
9
9
9
9
9
9
9
9
9
9
9
9
9
9
9
9
9
9
9
9
9
9
9
9
9
9
9
9
9
9
9
9
9
9
9
9
9
9
9
9
9
9
9
9
9
9
9
9
9
9
9
9
9
9
9
9
9
9
9
9
9
9
9
9
9
9
9
9
9
9
9
9
9
9
9
9
9
9
9
9
9
9
9
9
9
9
9
9
9
9
9
9
9
9
9
9
9
9
9
9
9
9
9
9
9
9
9
9
9
9
9
9
9
9
9
9
9
9
9
9
9
9
9
9
9
9
9
9
9
9
9
9
9
9

POINT_DATA 289
SCALARS Solution float
LOOKUP_TABLE default
0 
0 
0 
0 
0 
0 
0 
0 
0 
0 
0 
0 
0 
0 
0 
0 
0 
0.078125 
0.0732422 
0.0683594 
0.0634766 
0.0585937 
0.0537109 
0.0488281 
0.0439453 
0.0390625 
0.0341797 
0.0292969 
0.0244141 
0.0195312 
0.0146484 
0.00976562 
0.00488281 
0 
0.15625 
0.146484 
0.136719 
0.126953 
0.117187 
0.107422 
0.0976562 
0.0878906 
0.078125 
0.0683594 
0.0585937 
0.0488281 
0.0390625 
0.0292969 
0.0195312 
0.00976562 
0 
0.234375 
0.219727 
0.205078 
0.19043 
0.175781 
0.161133 
0.146484 
0.131836 
0.117188 
0.102539 
0.0878906 
0.0732422 
0.0585937 
0.0439453 
0.0292969 
0.0146484 
0 
0.3125 
0.292969 
0.273438 
0.253906 
0.234375 
0.214844 
0.195312 
0.175781 
0.15625 
0.136719 
0.117187 
0.0976562 
0.078125 
0.0585938 
0.0390625 
0.0195312 
0 
0.390625 
0.366211 
0.341797 
0.317383 
0.292969 
0.268555 
0.244141 
0.219727 
0.195312 
0.170898 
0.146484 
0.12207 
0.0976562 
0.0732422 
0.0488281 
0.0244141 
0 
0.46875 
0.439453 
0.410156 
0.380859 
0.351562 
0.322266 
0.292969 
0.263672 
0.234375 
0.205078 
0.175781 
0.146484 
0.117187 
0.0878906 
0.0585938 
0.0292969 
0 
0.546875 
0.512695 
0.478516 
0.444336 
0.410156 
0.375977 
0.341797 
0.307617 
0.273438 
0.239258 
0.205078 
0.170898 
0.136719 
0.102539 
0.0683594 
0.0341797 
0 
0.625 
0.585937 
0.546875 
0.507812 
0.46875 
0.429687 
0.390625 
0.351562 
0.3125 
0.273437 
0.234375 
0.195312 
0.15625 
0.117188 
0.078125 
0.0390625 
0 
0.703125 
0.65918 
0.615234 
0.571289 
0.527344 
0.483398 
0.439453 
0.395508 
0.351562 
0.307617 
0.263672 
0.219727 
0.175781 
0.131836 
0.0878906 
0.0439453 
0 
0.78125 
0.732422 
0.683594 
0.634766 
0.585937 
0.537109 
0.488281 
0.439453 
0.390625 
0.341797 
0.292969 
0.244141 
0.195312 
0.146484 
0.0976562 
0.0488281 
0 
0.859375 
0.805664 
0.751953 
0.698242 
0.644531 
0.59082 
0.537109 
0.483398 
0.429688 
0.375977 
0.322266 
0.268555 
0.214844 
0.161133 
0.107422 
0.0537109 
0 
0.9375 
0.878906 
0.820312 
0.761719 
0.703125 
0.644531 
0.585937 
0.527344 
0.46875 
0.410156 
0.351562 
0.292969 
0.234375 
0.175781 
0.117188 
0.0585937 
0 
1.01562 
0.952148 
0.888672 
0.825195 
0.761719 
0.698242 
0.634766 
0.571289 
0.507812 
0.444336 
0.380859 
0.317383 
0.253906 
0.19043 
0.126953 
0.0634766 
0 
1.09375 
1.02539 
0.957031 
0.888672 
0.820312 
0.751953 
0.683594 
0.615234 
0.546875 
0.478516 
0.410156 
0.341797 
0.273437 
0.205078 
0.136719 
0.0683594 
0 
1.17187 
1.09863 
1.02539 
0.952148 
0.878906 
0.805664 
0.732422 
0.65918 
0.585938 
0.512695 
0.439453 
0.366211 
0.292969 
0.219727 
0.146484 
0.0732422 
0 
1.25 
1.17187 
1.09375 
1.01562 
0.9375 
0.859375 
0.78125 
0.703125 
0.625 
0.546875 
0.46875 
0.390625 
0.3125 
0.234375 
0.15625 
0.078125 
0 

