# vtk DataFile Version 3.0
Arquivo gerado por PZ
ASCII

DATASET UNSTRUCTURED_GRID
POINTS 1089 float
1.2 0 0
1.2 0.0125 0
1.2 0.025 0
1.2 0.0375 0
1.2 0.05 0
1.2 0.0625 0
1.2 0.075 0
1.2 0.0875 0
1.2 0.1 0
1.2 0.1125 0
1.2 0.125 0
1.2 0.1375 0
1.2 0.15 0
1.2 0.1625 0
1.2 0.175 0
1.2 0.1875 0
1.2 0.2 0
1.2 0.2125 0
1.2 0.225 0
1.2 0.2375 0
1.2 0.25 0
1.2 0.2625 0
1.2 0.275 0
1.2 0.2875 0
1.2 0.3 0
1.2 0.3125 0
1.2 0.325 0
1.2 0.3375 0
1.2 0.35 0
1.2 0.3625 0
1.2 0.375 0
1.2 0.3875 0
1.2 0.4 0
1.2125 0 0
1.2125 0.0125 0
1.2125 0.025 0
1.2125 0.0375 0
1.2125 0.05 0
1.2125 0.0625 0
1.2125 0.075 0
1.2125 0.0875 0
1.2125 0.1 0
1.2125 0.1125 0
1.2125 0.125 0
1.2125 0.1375 0
1.2125 0.15 0
1.2125 0.1625 0
1.2125 0.175 0
1.2125 0.1875 0
1.2125 0.2 0
1.2125 0.2125 0
1.2125 0.225 0
1.2125 0.2375 0
1.2125 0.25 0
1.2125 0.2625 0
1.2125 0.275 0
1.2125 0.2875 0
1.2125 0.3 0
1.2125 0.3125 0
1.2125 0.325 0
1.2125 0.3375 0
1.2125 0.35 0
1.2125 0.3625 0
1.2125 0.375 0
1.2125 0.3875 0
1.2125 0.4 0
1.225 0 0
1.225 0.0125 0
1.225 0.025 0
1.225 0.0375 0
1.225 0.05 0
1.225 0.0625 0
1.225 0.075 0
1.225 0.0875 0
1.225 0.1 0
1.225 0.1125 0
1.225 0.125 0
1.225 0.1375 0
1.225 0.15 0
1.225 0.1625 0
1.225 0.175 0
1.225 0.1875 0
1.225 0.2 0
1.225 0.2125 0
1.225 0.225 0
1.225 0.2375 0
1.225 0.25 0
1.225 0.2625 0
1.225 0.275 0
1.225 0.2875 0
1.225 0.3 0
1.225 0.3125 0
1.225 0.325 0
1.225 0.3375 0
1.225 0.35 0
1.225 0.3625 0
1.225 0.375 0
1.225 0.3875 0
1.225 0.4 0
1.2375 0 0
1.2375 0.0125 0
1.2375 0.025 0
1.2375 0.0375 0
1.2375 0.05 0
1.2375 0.0625 0
1.2375 0.075 0
1.2375 0.0875 0
1.2375 0.1 0
1.2375 0.1125 0
1.2375 0.125 0
1.2375 0.1375 0
1.2375 0.15 0
1.2375 0.1625 0
1.2375 0.175 0
1.2375 0.1875 0
1.2375 0.2 0
1.2375 0.2125 0
1.2375 0.225 0
1.2375 0.2375 0
1.2375 0.25 0
1.2375 0.2625 0
1.2375 0.275 0
1.2375 0.2875 0
1.2375 0.3 0
1.2375 0.3125 0
1.2375 0.325 0
1.2375 0.3375 0
1.2375 0.35 0
1.2375 0.3625 0
1.2375 0.375 0
1.2375 0.3875 0
1.2375 0.4 0
1.25 0 0
1.25 0.0125 0
1.25 0.025 0
1.25 0.0375 0
1.25 0.05 0
1.25 0.0625 0
1.25 0.075 0
1.25 0.0875 0
1.25 0.1 0
1.25 0.1125 0
1.25 0.125 0
1.25 0.1375 0
1.25 0.15 0
1.25 0.1625 0
1.25 0.175 0
1.25 0.1875 0
1.25 0.2 0
1.25 0.2125 0
1.25 0.225 0
1.25 0.2375 0
1.25 0.25 0
1.25 0.2625 0
1.25 0.275 0
1.25 0.2875 0
1.25 0.3 0
1.25 0.3125 0
1.25 0.325 0
1.25 0.3375 0
1.25 0.35 0
1.25 0.3625 0
1.25 0.375 0
1.25 0.3875 0
1.25 0.4 0
1.2625 0 0
1.2625 0.0125 0
1.2625 0.025 0
1.2625 0.0375 0
1.2625 0.05 0
1.2625 0.0625 0
1.2625 0.075 0
1.2625 0.0875 0
1.2625 0.1 0
1.2625 0.1125 0
1.2625 0.125 0
1.2625 0.1375 0
1.2625 0.15 0
1.2625 0.1625 0
1.2625 0.175 0
1.2625 0.1875 0
1.2625 0.2 0
1.2625 0.2125 0
1.2625 0.225 0
1.2625 0.2375 0
1.2625 0.25 0
1.2625 0.2625 0
1.2625 0.275 0
1.2625 0.2875 0
1.2625 0.3 0
1.2625 0.3125 0
1.2625 0.325 0
1.2625 0.3375 0
1.2625 0.35 0
1.2625 0.3625 0
1.2625 0.375 0
1.2625 0.3875 0
1.2625 0.4 0
1.275 0 0
1.275 0.0125 0
1.275 0.025 0
1.275 0.0375 0
1.275 0.05 0
1.275 0.0625 0
1.275 0.075 0
1.275 0.0875 0
1.275 0.1 0
1.275 0.1125 0
1.275 0.125 0
1.275 0.1375 0
1.275 0.15 0
1.275 0.1625 0
1.275 0.175 0
1.275 0.1875 0
1.275 0.2 0
1.275 0.2125 0
1.275 0.225 0
1.275 0.2375 0
1.275 0.25 0
1.275 0.2625 0
1.275 0.275 0
1.275 0.2875 0
1.275 0.3 0
1.275 0.3125 0
1.275 0.325 0
1.275 0.3375 0
1.275 0.35 0
1.275 0.3625 0
1.275 0.375 0
1.275 0.3875 0
1.275 0.4 0
1.2875 0 0
1.2875 0.0125 0
1.2875 0.025 0
1.2875 0.0375 0
1.2875 0.05 0
1.2875 0.0625 0
1.2875 0.075 0
1.2875 0.0875 0
1.2875 0.1 0
1.2875 0.1125 0
1.2875 0.125 0
1.2875 0.1375 0
1.2875 0.15 0
1.2875 0.1625 0
1.2875 0.175 0
1.2875 0.1875 0
1.2875 0.2 0
1.2875 0.2125 0
1.2875 0.225 0
1.2875 0.2375 0
1.2875 0.25 0
1.2875 0.2625 0
1.2875 0.275 0
1.2875 0.2875 0
1.2875 0.3 0
1.2875 0.3125 0
1.2875 0.325 0
1.2875 0.3375 0
1.2875 0.35 0
1.2875 0.3625 0
1.2875 0.375 0
1.2875 0.3875 0
1.2875 0.4 0
1.3 0 0
1.3 0.0125 0
1.3 0.025 0
1.3 0.0375 0
1.3 0.05 0
1.3 0.0625 0
1.3 0.075 0
1.3 0.0875 0
1.3 0.1 0
1.3 0.1125 0
1.3 0.125 0
1.3 0.1375 0
1.3 0.15 0
1.3 0.1625 0
1.3 0.175 0
1.3 0.1875 0
1.3 0.2 0
1.3 0.2125 0
1.3 0.225 0
1.3 0.2375 0
1.3 0.25 0
1.3 0.2625 0
1.3 0.275 0
1.3 0.2875 0
1.3 0.3 0
1.3 0.3125 0
1.3 0.325 0
1.3 0.3375 0
1.3 0.35 0
1.3 0.3625 0
1.3 0.375 0
1.3 0.3875 0
1.3 0.4 0
1.3125 0 0
1.3125 0.0125 0
1.3125 0.025 0
1.3125 0.0375 0
1.3125 0.05 0
1.3125 0.0625 0
1.3125 0.075 0
1.3125 0.0875 0
1.3125 0.1 0
1.3125 0.1125 0
1.3125 0.125 0
1.3125 0.1375 0
1.3125 0.15 0
1.3125 0.1625 0
1.3125 0.175 0
1.3125 0.1875 0
1.3125 0.2 0
1.3125 0.2125 0
1.3125 0.225 0
1.3125 0.2375 0
1.3125 0.25 0
1.3125 0.2625 0
1.3125 0.275 0
1.3125 0.2875 0
1.3125 0.3 0
1.3125 0.3125 0
1.3125 0.325 0
1.3125 0.3375 0
1.3125 0.35 0
1.3125 0.3625 0
1.3125 0.375 0
1.3125 0.3875 0
1.3125 0.4 0
1.325 0 0
1.325 0.0125 0
1.325 0.025 0
1.325 0.0375 0
1.325 0.05 0
1.325 0.0625 0
1.325 0.075 0
1.325 0.0875 0
1.325 0.1 0
1.325 0.1125 0
1.325 0.125 0
1.325 0.1375 0
1.325 0.15 0
1.325 0.1625 0
1.325 0.175 0
1.325 0.1875 0
1.325 0.2 0
1.325 0.2125 0
1.325 0.225 0
1.325 0.2375 0
1.325 0.25 0
1.325 0.2625 0
1.325 0.275 0
1.325 0.2875 0
1.325 0.3 0
1.325 0.3125 0
1.325 0.325 0
1.325 0.3375 0
1.325 0.35 0
1.325 0.3625 0
1.325 0.375 0
1.325 0.3875 0
1.325 0.4 0
1.3375 0 0
1.3375 0.0125 0
1.3375 0.025 0
1.3375 0.0375 0
1.3375 0.05 0
1.3375 0.0625 0
1.3375 0.075 0
1.3375 0.0875 0
1.3375 0.1 0
1.3375 0.1125 0
1.3375 0.125 0
1.3375 0.1375 0
1.3375 0.15 0
1.3375 0.1625 0
1.3375 0.175 0
1.3375 0.1875 0
1.3375 0.2 0
1.3375 0.2125 0
1.3375 0.225 0
1.3375 0.2375 0
1.3375 0.25 0
1.3375 0.2625 0
1.3375 0.275 0
1.3375 0.2875 0
1.3375 0.3 0
1.3375 0.3125 0
1.3375 0.325 0
1.3375 0.3375 0
1.3375 0.35 0
1.3375 0.3625 0
1.3375 0.375 0
1.3375 0.3875 0
1.3375 0.4 0
1.35 0 0
1.35 0.0125 0
1.35 0.025 0
1.35 0.0375 0
1.35 0.05 0
1.35 0.0625 0
1.35 0.075 0
1.35 0.0875 0
1.35 0.1 0
1.35 0.1125 0
1.35 0.125 0
1.35 0.1375 0
1.35 0.15 0
1.35 0.1625 0
1.35 0.175 0
1.35 0.1875 0
1.35 0.2 0
1.35 0.2125 0
1.35 0.225 0
1.35 0.2375 0
1.35 0.25 0
1.35 0.2625 0
1.35 0.275 0
1.35 0.2875 0
1.35 0.3 0
1.35 0.3125 0
1.35 0.325 0
1.35 0.3375 0
1.35 0.35 0
1.35 0.3625 0
1.35 0.375 0
1.35 0.3875 0
1.35 0.4 0
1.3625 0 0
1.3625 0.0125 0
1.3625 0.025 0
1.3625 0.0375 0
1.3625 0.05 0
1.3625 0.0625 0
1.3625 0.075 0
1.3625 0.0875 0
1.3625 0.1 0
1.3625 0.1125 0
1.3625 0.125 0
1.3625 0.1375 0
1.3625 0.15 0
1.3625 0.1625 0
1.3625 0.175 0
1.3625 0.1875 0
1.3625 0.2 0
1.3625 0.2125 0
1.3625 0.225 0
1.3625 0.2375 0
1.3625 0.25 0
1.3625 0.2625 0
1.3625 0.275 0
1.3625 0.2875 0
1.3625 0.3 0
1.3625 0.3125 0
1.3625 0.325 0
1.3625 0.3375 0
1.3625 0.35 0
1.3625 0.3625 0
1.3625 0.375 0
1.3625 0.3875 0
1.3625 0.4 0
1.375 0 0
1.375 0.0125 0
1.375 0.025 0
1.375 0.0375 0
1.375 0.05 0
1.375 0.0625 0
1.375 0.075 0
1.375 0.0875 0
1.375 0.1 0
1.375 0.1125 0
1.375 0.125 0
1.375 0.1375 0
1.375 0.15 0
1.375 0.1625 0
1.375 0.175 0
1.375 0.1875 0
1.375 0.2 0
1.375 0.2125 0
1.375 0.225 0
1.375 0.2375 0
1.375 0.25 0
1.375 0.2625 0
1.375 0.275 0
1.375 0.2875 0
1.375 0.3 0
1.375 0.3125 0
1.375 0.325 0
1.375 0.3375 0
1.375 0.35 0
1.375 0.3625 0
1.375 0.375 0
1.375 0.3875 0
1.375 0.4 0
1.3875 0 0
1.3875 0.0125 0
1.3875 0.025 0
1.3875 0.0375 0
1.3875 0.05 0
1.3875 0.0625 0
1.3875 0.075 0
1.3875 0.0875 0
1.3875 0.1 0
1.3875 0.1125 0
1.3875 0.125 0
1.3875 0.1375 0
1.3875 0.15 0
1.3875 0.1625 0
1.3875 0.175 0
1.3875 0.1875 0
1.3875 0.2 0
1.3875 0.2125 0
1.3875 0.225 0
1.3875 0.2375 0
1.3875 0.25 0
1.3875 0.2625 0
1.3875 0.275 0
1.3875 0.2875 0
1.3875 0.3 0
1.3875 0.3125 0
1.3875 0.325 0
1.3875 0.3375 0
1.3875 0.35 0
1.3875 0.3625 0
1.3875 0.375 0
1.3875 0.3875 0
1.3875 0.4 0
1.4 0 0
1.4 0.0125 0
1.4 0.025 0
1.4 0.0375 0
1.4 0.05 0
1.4 0.0625 0
1.4 0.075 0
1.4 0.0875 0
1.4 0.1 0
1.4 0.1125 0
1.4 0.125 0
1.4 0.1375 0
1.4 0.15 0
1.4 0.1625 0
1.4 0.175 0
1.4 0.1875 0
1.4 0.2 0
1.4 0.2125 0
1.4 0.225 0
1.4 0.2375 0
1.4 0.25 0
1.4 0.2625 0
1.4 0.275 0
1.4 0.2875 0
1.4 0.3 0
1.4 0.3125 0
1.4 0.325 0
1.4 0.3375 0
1.4 0.35 0
1.4 0.3625 0
1.4 0.375 0
1.4 0.3875 0
1.4 0.4 0
1.4125 0 0
1.4125 0.0125 0
1.4125 0.025 0
1.4125 0.0375 0
1.4125 0.05 0
1.4125 0.0625 0
1.4125 0.075 0
1.4125 0.0875 0
1.4125 0.1 0
1.4125 0.1125 0
1.4125 0.125 0
1.4125 0.1375 0
1.4125 0.15 0
1.4125 0.1625 0
1.4125 0.175 0
1.4125 0.1875 0
1.4125 0.2 0
1.4125 0.2125 0
1.4125 0.225 0
1.4125 0.2375 0
1.4125 0.25 0
1.4125 0.2625 0
1.4125 0.275 0
1.4125 0.2875 0
1.4125 0.3 0
1.4125 0.3125 0
1.4125 0.325 0
1.4125 0.3375 0
1.4125 0.35 0
1.4125 0.3625 0
1.4125 0.375 0
1.4125 0.3875 0
1.4125 0.4 0
1.425 0 0
1.425 0.0125 0
1.425 0.025 0
1.425 0.0375 0
1.425 0.05 0
1.425 0.0625 0
1.425 0.075 0
1.425 0.0875 0
1.425 0.1 0
1.425 0.1125 0
1.425 0.125 0
1.425 0.1375 0
1.425 0.15 0
1.425 0.1625 0
1.425 0.175 0
1.425 0.1875 0
1.425 0.2 0
1.425 0.2125 0
1.425 0.225 0
1.425 0.2375 0
1.425 0.25 0
1.425 0.2625 0
1.425 0.275 0
1.425 0.2875 0
1.425 0.3 0
1.425 0.3125 0
1.425 0.325 0
1.425 0.3375 0
1.425 0.35 0
1.425 0.3625 0
1.425 0.375 0
1.425 0.3875 0
1.425 0.4 0
1.4375 0 0
1.4375 0.0125 0
1.4375 0.025 0
1.4375 0.0375 0
1.4375 0.05 0
1.4375 0.0625 0
1.4375 0.075 0
1.4375 0.0875 0
1.4375 0.1 0
1.4375 0.1125 0
1.4375 0.125 0
1.4375 0.1375 0
1.4375 0.15 0
1.4375 0.1625 0
1.4375 0.175 0
1.4375 0.1875 0
1.4375 0.2 0
1.4375 0.2125 0
1.4375 0.225 0
1.4375 0.2375 0
1.4375 0.25 0
1.4375 0.2625 0
1.4375 0.275 0
1.4375 0.2875 0
1.4375 0.3 0
1.4375 0.3125 0
1.4375 0.325 0
1.4375 0.3375 0
1.4375 0.35 0
1.4375 0.3625 0
1.4375 0.375 0
1.4375 0.3875 0
1.4375 0.4 0
1.45 0 0
1.45 0.0125 0
1.45 0.025 0
1.45 0.0375 0
1.45 0.05 0
1.45 0.0625 0
1.45 0.075 0
1.45 0.0875 0
1.45 0.1 0
1.45 0.1125 0
1.45 0.125 0
1.45 0.1375 0
1.45 0.15 0
1.45 0.1625 0
1.45 0.175 0
1.45 0.1875 0
1.45 0.2 0
1.45 0.2125 0
1.45 0.225 0
1.45 0.2375 0
1.45 0.25 0
1.45 0.2625 0
1.45 0.275 0
1.45 0.2875 0
1.45 0.3 0
1.45 0.3125 0
1.45 0.325 0
1.45 0.3375 0
1.45 0.35 0
1.45 0.3625 0
1.45 0.375 0
1.45 0.3875 0
1.45 0.4 0
1.4625 0 0
1.4625 0.0125 0
1.4625 0.025 0
1.4625 0.0375 0
1.4625 0.05 0
1.4625 0.0625 0
1.4625 0.075 0
1.4625 0.0875 0
1.4625 0.1 0
1.4625 0.1125 0
1.4625 0.125 0
[...]
POINT_DATA 1089
SCALARS Solution float
LOOKUP_TABLE default
0 
0 
0 
0 
0 
0 
0 
0 
0 
0 
0 
0 
0 
0 
0 
0 
0 
0 
0 
0 
0 
0 
0 
0 
0 
0 
0 
0 
0 
0 
0 
0 
0 
0 
0 
0 
0 
0 
0 
0 
0 
0 
0 
0 
0 
0 
0 
0 
0 
0 
0 
0 
0 
0 
0 
0 
0 
0 
0 
0 
0 
0 
0 
0 
0 
0 
0 
0 
0 
0 
0 
0 
0 
0 
0 
0 
0 
0 
0 
0 
0 
0 
0 
0 
0 
0 
0 
0 
0 
0 
0 
0 
0 
0 
0 
0 
0 
0 
0 
0 
-3.15096e-17 
-6.09864e-17 
-8.84302e-17 
-1.13841e-16 
-1.37219e-16 
-1.58565e-16 
-1.77877e-16 
-1.95156e-16 
-2.10403e-16 
-2.23617e-16 
-2.34798e-16 
-2.43945e-16 
-2.51061e-16 
-2.56143e-16 
-2.59192e-16 
-2.60209e-16 
-2.59192e-16 
-2.56143e-16 
-2.51061e-16 
-2.43945e-16 
-2.34798e-16 
-2.23617e-16 
-2.10403e-16 
-1.95156e-16 
-1.77877e-16 
-1.58565e-16 
-1.37219e-16 
-1.13841e-16 
-8.84302e-17 
-6.09864e-17 
-3.15096e-17 
0 
0 
0 
0 
0 
0 
0 
0 
0 
0 
0 
0 
0 
0 
0 
0 
0 
0 
0 
0 
0 
0 
0 
0 
0 
0 
0 
0 
0 
0 
0 
0 
0 
0 
0 
0 
0 
0 
0 
0 
0 
0 
0 
0 
0 
0 
0 
0 
0 
0 
0 
0 
0 
0 
0 
0 
0 
0 
0 
0 
0 
0 
0 
0 
0 
0 
0 
0 
0 
0 
0 
0 
0 
0 
0 
0 
0 
0 
0 
0 
0 
0 
0 
0 
0 
0 
0 
0 
0 
0 
0 
0 
0 
0 
0 
0 
0 
0 
0 
0 
0 
3.67612e-17 
7.11508e-17 
1.03169e-16 
1.32815e-16 
1.60089e-16 
1.84992e-16 
2.07523e-16 
2.27682e-16 
2.4547e-16 
2.60886e-16 
2.7393e-16 
2.84603e-16 
2.92904e-16 
2.98833e-16 
3.02391e-16 
3.03577e-16 
3.02391e-16 
2.98833e-16 
2.92904e-16 
2.84603e-16 
2.7393e-16 
2.60886e-16 
2.4547e-16 
2.27682e-16 
2.07523e-16 
1.84992e-16 
1.60089e-16 
1.32815e-16 
1.03169e-16 
7.11508e-17 
3.67612e-17 
0 
0 
-4.20128e-17 
-8.13152e-17 
-1.17907e-16 
-1.51788e-16 
-1.82959e-16 
-2.11419e-16 
-2.37169e-16 
-2.60209e-16 
-2.80537e-16 
-2.98156e-16 
-3.13063e-16 
-3.25261e-16 
-3.34747e-16 
-3.41524e-16 
-3.45589e-16 
-3.46945e-16 
-3.45589e-16 
-3.41524e-16 
-3.34747e-16 
-3.25261e-16 
-3.13063e-16 
-2.98156e-16 
-2.80537e-16 
-2.60209e-16 
-2.37169e-16 
-2.11419e-16 
-1.82959e-16 
-1.51788e-16 
-1.17907e-16 
-8.13152e-17 
-4.20128e-17 
0 
0 
-4.72644e-17 
-9.14796e-17 
-1.32645e-16 
-1.70762e-16 
-2.05829e-16 
-2.37847e-16 
-2.66815e-16 
-2.92735e-16 
-3.15604e-16 
-3.35425e-16 
-3.52196e-16 
-3.65918e-16 
-3.76591e-16 
-3.84214e-16 
-3.88788e-16 
-3.90313e-16 
-3.88788e-16 
-3.84214e-16 
-3.76591e-16 
-3.65918e-16 
-3.52196e-16 
-3.35425e-16 
-3.15604e-16 
-2.92735e-16 
-2.66815e-16 
-2.37847e-16 
-2.05829e-16 
-1.70762e-16 
-1.32645e-16 
-9.14796e-17 
-4.72644e-17 
0 
0 
0 
0 
0 
0 
0 
0 
0 
0 
0 
0 
0 
0 
0 
0 
0 
0 
0 
0 
0 
0 
0 
0 
0 
0 
0 
0 
0 
0 
0 
0 
0 
0 
0 
0 
0 
0 
0 
0 
0 
0 
0 
0 
0 
0 
0 
0 
0 
0 
0 
0 
0 
0 
0 
0 
0 
0 
0 
0 
0 
0 
0 
0 
0 
0 
0 
0 
6.30193e-17 
1.21973e-16 
1.7686e-16 
2.27682e-16 
2.74439e-16 
3.17129e-16 
3.55754e-16 
3.90313e-16 
4.20806e-16 
4.47233e-16 
4.69595e-16 
4.87891e-16 
5.02121e-16 
5.12286e-16 
5.18384e-16 
5.20417e-16 
5.18384e-16 
5.12286e-16 
5.02121e-16 
4.87891e-16 
4.69595e-16 
4.47233e-16 
4.20806e-16 
3.90313e-16 
3.55754e-16 
3.17129e-16 
2.74439e-16 
2.27682e-16 
1.7686e-16 
1.21973e-16 
6.30193e-17 
0 
0 
-6.82709e-17 
-1.32137e-16 
-1.91599e-16 
-2.46656e-16 
-2.97309e-16 
-3.43557e-16 
-3.854e-16 
-4.22839e-16 
-4.55873e-16 
-4.84503e-16 
-5.08728e-16 
-5.28549e-16 
-5.43965e-16 
-5.54976e-16 
-5.61583e-16 
-5.63785e-16 
-5.61583e-16 
-5.54976e-16 
-5.43965e-16 
-5.28549e-16 
-5.08728e-16 
-4.84503e-16 
-4.55873e-16 
-4.22839e-16 
-3.854e-16 
-3.43557e-16 
-2.97309e-16 
-2.46656e-16 
-1.91599e-16 
-1.32137e-16 
-6.82709e-17 
0 
0 
7.35225e-17 
1.42302e-16 
2.06337e-16 
2.6563e-16 
3.20178e-16 
3.69984e-16 
4.15046e-16 
4.55365e-16 
4.9094e-16 
5.21772e-16 
5.47861e-16 
5.69206e-16 
5.85808e-16 
5.97666e-16 
6.04782e-16 
6.07153e-16 
6.04782e-16 
5.97666e-16 
5.85808e-16 
5.69206e-16 
5.47861e-16 
5.21772e-16 
4.9094e-16 
4.55365e-16 
4.15046e-16 
3.69984e-16 
3.20178e-16 
2.6563e-16 
2.06337e-16 
1.42302e-16 
7.35225e-17 
0 
0 
-7.87741e-17 
-1.52466e-16 
-2.21076e-16 
-2.84603e-16 
-3.43048e-16 
-3.96411e-16 
-4.44692e-16 
-4.87891e-16 
-5.26007e-16 
-5.59042e-16 
-5.86994e-16 
-6.09864e-16 
-6.27651e-16 
-6.40357e-16 
-6.4798e-16 
-6.50521e-16 
-6.4798e-16 
-6.40357e-16 
-6.27651e-16 
-6.09864e-16 
-5.86994e-16 
-5.59042e-16 
-5.26007e-16 
-4.87891e-16 
-4.44692e-16 
-3.96411e-16 
-3.43048e-16 
-2.84603e-16 
-2.21076e-16 
-1.52466e-16 
-7.87741e-17 
0 
0 
0 
0 
0 
0 
0 
0 
0 
0 
0 
0 
0 
0 
0 
0 
0 
0 
0 
0 
0 
0 
0 
0 
0 
0 
0 
0 
0 
0 
0 
0 
0 
0 
0 
8.92773e-17 
1.72795e-16 
2.50552e-16 
3.2255e-16 
3.88788e-16 
4.49266e-16 
5.03985e-16 
5.52943e-16 
5.96142e-16 
6.33581e-16 
6.6526e-16 
6.91179e-16 
7.11338e-16 
7.25738e-16 
7.34378e-16 
7.37257e-16 
7.34378e-16 
7.25738e-16 
7.11338e-16 
6.91179e-16 
6.6526e-16 
6.33581e-16 
5.96142e-16 
5.52943e-16 
5.03985e-16 
4.49266e-16 
3.88788e-16 
3.2255e-16 
2.50552e-16 
1.72795e-16 
8.92773e-17 
0 
0 
-9.45289e-17 
-1.82959e-16 
-2.65291e-16 
-3.41524e-16 
-4.11658e-16 
-4.75694e-16 
-5.33631e-16 
-5.85469e-16 
-6.31209e-16 
-6.7085e-16 
-7.04393e-16 
-7.31836e-16 
-7.53182e-16 
-7.68428e-16 
-7.77576e-16 
-7.80626e-16 
-7.77576e-16 
-7.68428e-16 
-7.53182e-16 
-7.31836e-16 
-7.04393e-16 
-6.7085e-16 
-6.31209e-16 
-5.85469e-16 
-5.33631e-16 
-4.75694e-16 
-4.11658e-16 
-3.41524e-16 
-2.65291e-16 
-1.82959e-16 
-9.45289e-17 
0 
0 
9.97805e-17 
1.93124e-16 
2.80029e-16 
3.60497e-16 
4.34528e-16 
5.02121e-16 
5.63277e-16 
6.17995e-16 
6.66276e-16 
7.0812e-16 
7.43526e-16 
7.72494e-16 
7.95025e-16 
8.11119e-16 
8.20775e-16 
8.23994e-16 
8.20775e-16 
8.11119e-16 
7.95025e-16 
7.72494e-16 
7.43526e-16 
7.0812e-16 
6.66276e-16 
6.17995e-16 
5.63277e-16 
5.02121e-16 
4.34528e-16 
3.60497e-16 
2.80029e-16 
1.93124e-16 
9.97805e-17 
0 
0 
-1.05032e-16 
-2.03288e-16 
-2.94767e-16 
-3.79471e-16 
-4.57398e-16 
-5.28549e-16 
-5.92923e-16 
-6.50521e-16 
-7.01343e-16 
-7.45389e-16 
-7.82658e-16 
-8.13152e-16 
-8.36869e-16 
-8.53809e-16 
-8.63974e-16 
-8.67362e-16 
-8.63974e-16 
-8.53809e-16 
-8.36869e-16 
-8.13152e-16 
-7.82658e-16 
-7.45389e-16 
-7.01343e-16 
-6.50521e-16 
-5.92923e-16 
-5.28549e-16 
-4.57398e-16 
-3.79471e-16 
-2.94767e-16 
-2.03288e-16 
-1.05032e-16 
0 
0 
0 
0 
0 
0 
0 
0 
0 
0 
0 
0 
0 
0 
0 
0 
0 
0 
0 
0 
0 
0 
0 
0 
0 
0 
0 
0 
0 
0 
0 
0 
0 
0 
0 
5.77676e-17 
1.11808e-16 
1.62122e-16 
2.08709e-16 
2.51569e-16 
2.90702e-16 
3.26108e-16 
3.57787e-16 
3.85739e-16 
4.09964e-16 
4.30462e-16 
4.47233e-16 
4.60278e-16 
4.69595e-16 
4.75185e-16 
4.77049e-16 
4.75185e-16 
4.69595e-16 
4.60278e-16 
4.47233e-16 
4.30462e-16 
4.09964e-16 
3.85739e-16 
3.57787e-16 
3.26108e-16 
2.90702e-16 
2.51569e-16 
2.08709e-16 
1.62122e-16 
1.11808e-16 
5.77676e-17 
0 
0 
-1.20787e-16 
-2.33781e-16 
-3.38983e-16 
-4.36391e-16 
-5.26007e-16 
-6.07831e-16 
-6.81862e-16 
-7.48099e-16 
-8.06545e-16 
-8.57197e-16 
-9.00057e-16 
-9.35124e-16 
-9.62399e-16 
-9.81881e-16 
-9.9357e-16 
-9.97466e-16 
-9.9357e-16 
-9.81881e-16 
-9.62399e-16 
-9.35124e-16 
-9.00057e-16 
-8.57197e-16 
-8.06545e-16 
-7.48099e-16 
-6.81862e-16 
-6.07831e-16 
-5.26007e-16 
-4.36391e-16 
-3.38983e-16 
-2.33781e-16 
-1.20787e-16 
0 
0 
0 
0 
0 
0 
0 
0 
0 
0 
0 
0 
0 
0 
0 
0 
0 
0 
0 
0 
0 
0 
0 
0 
0 
0 
0 
0 
0 
0 
0 
0 
0 
0 
0 
-1.3129e-16 
-2.5411e-16 
-3.68459e-16 
-4.74338e-16 
-5.71747e-16 
-6.60686e-16 
-7.41154e-16 
-8.13152e-16 
-8.76679e-16 
-9.31736e-16 
-9.78323e-16 
-1.01644e-15 
-1.04609e-15 
-1.06726e-15 
-1.07997e-15 
-1.0842e-15 
-1.07997e-15 
-1.06726e-15 
-1.04609e-15 
-1.01644e-15 
-9.78323e-16 
-9.31736e-16 
-8.76679e-16 
-8.13152e-16 
-7.41154e-16 
-6.60686e-16 
-5.71747e-16 
-4.74338e-16 
-3.68459e-16 
-2.5411e-16 
-1.3129e-16 
0 
0 
-6.82709e-17 
-1.32137e-16 
-1.91599e-16 
-2.46656e-16 
-2.97309e-16 
-3.43557e-16 
-3.854e-16 
-4.22839e-16 
-4.55873e-16 
-4.84503e-16 
-5.08728e-16 
-5.28549e-16 
-5.43965e-16 
-5.54976e-16 
-5.61583e-16 
-5.63785e-16 
-5.61583e-16 
-5.54976e-16 
-5.43965e-16 
-5.28549e-16 
-5.08728e-16 
-4.84503e-16 
-4.55873e-16 
-4.22839e-16 
-3.854e-16 
-3.43557e-16 
-2.97309e-16 
-2.46656e-16 
-1.91599e-16 
-1.32137e-16 
-6.82709e-17 
0 
0 
3.54483e-17 
6.86097e-17 
9.9484e-17 
1.28071e-16 
1.54372e-16 
1.78385e-16 
2.00112e-16 
2.19551e-16 
2.36703e-16 
2.51569e-16 
2.64147e-16 
2.74439e-16 
2.82443e-16 
2.88161e-16 
2.91591e-16 
2.92735e-16 
2.91591e-16 
2.88161e-16 
2.82443e-16 
2.74439e-16 
2.64147e-16 
2.51569e-16 
2.36703e-16 
2.19551e-16 
2.00112e-16 
1.78385e-16 
1.54372e-16 
1.28071e-16 
9.9484e-17 
6.86097e-17 
3.54483e-17 
0 
0 
-1.47045e-16 
-2.84603e-16 
-4.12674e-16 
-5.31259e-16 
-6.40357e-16 
-7.39968e-16 
-8.30092e-16 
-9.1073e-16 
-9.81881e-16 
-1.04354e-15 
-1.09572e-15 
-1.13841e-15 
-1.17162e-15 
-1.19533e-15 
-1.20956e-15 
-1.21431e-15 
-1.20956e-15 
-1.19533e-15 
-1.17162e-15 
-1.13841e-15 
-1.09572e-15 
-1.04354e-15 
-9.81881e-16 
-9.1073e-16 
-8.30092e-16 
-7.39968e-16 
-6.40357e-16 
-5.31259e-16 
-4.12674e-16 
-2.84603e-16 
-1.47045e-16 
0 
0 
-3.80741e-17 
-7.36919e-17 
-1.06853e-16 
-1.37558e-16 
-1.65807e-16 
-1.91599e-16 
-2.14935e-16 
-2.35814e-16 
-2.54237e-16 
-2.70204e-16 
-2.83714e-16 
-2.94767e-16 
-3.03365e-16 
-3.09506e-16 
-3.1319e-16 
-3.14419e-16 
-3.1319e-16 
-3.09506e-16 
-3.03365e-16 
-2.94767e-16 
-2.83714e-16 
-2.70204e-16 
-2.54237e-16 
-2.35814e-16 
-2.14935e-16 
-1.91599e-16 
-1.65807e-16 
-1.37558e-16 
-1.06853e-16 
-7.36919e-17 
-3.80741e-17 
0 
0 
7.87741e-17 
1.52466e-16 
2.21076e-16 
2.84603e-16 
3.43048e-16 
3.96411e-16 
4.44692e-16 
4.87891e-16 
5.26007e-16 
5.59042e-16 
5.86994e-16 
6.09864e-16 
6.27651e-16 
6.40357e-16 
6.4798e-16 
6.50521e-16 
6.4798e-16 
6.40357e-16 
6.27651e-16 
6.09864e-16 
5.86994e-16 
5.59042e-16 
5.26007e-16 
4.87891e-16 
4.44692e-16 
3.96411e-16 
3.43048e-16 
2.84603e-16 
2.21076e-16 
1.52466e-16 
7.87741e-17 
0 
0 
-1.221e-16 
-2.36322e-16 
-3.42667e-16 
-4.41135e-16 
-5.31725e-16 
-6.14438e-16 
-6.89273e-16 
-7.56231e-16 
-8.15312e-16 
-8.66515e-16 
-9.0984e-16 
-9.45289e-16 
-9.7286e-16 
-9.92553e-16 
-1.00437e-15 
-1.00831e-15 
-1.00437e-15 
-9.92553e-16 
-9.7286e-16 
-9.45289e-16 
-9.0984e-16 
-8.66515e-16 
-8.15312e-16 
-7.56231e-16 
-6.89273e-16 
-6.14438e-16 
-5.31725e-16 
-4.41135e-16 
-3.42667e-16 
-2.36322e-16 
-1.221e-16 
0 
0 
0 
0 
0 
0 
0 
0 
0 
0 
0 
0 
0 
0 
0 
0 
0 
0 
0 
0 
0 
0 
0 
0 
0 
0 
0 
0 
0 
0 
0 
0 
0 
0 

