# vtk DataFile Version 3.0
Arquivo gerado por PZ
ASCII

DATASET UNSTRUCTURED_GRID
POINTS 81 float
0 0 0
0 0.125 0
0 0.25 0
0 0.375 0
0 0.5 0
0 0.625 0
0 0.75 0
0 0.875 0
0 1 0
0.125 0 0
0.109375 0.125 0
0.09375 0.25 0
0.078125 0.375 0
0.0625 0.5 0
0.046875 0.625 0
0.03125 0.75 0
0.015625 0.875 0
0 1 0
0.25 0 0
0.21875 0.125 0
0.1875 0.25 0
0.15625 0.375 0
0.125 0.5 0
0.09375 0.625 0
0.0625 0.75 0
0.03125 0.875 0
0 1 0
0.375 0 0
0.328125 0.125 0
0.28125 0.25 0
0.234375 0.375 0
0.1875 0.5 0
0.140625 0.625 0
0.09375 0.75 0
0.046875 0.875 0
0 1 0
0.5 0 0
0.4375 0.125 0
0.375 0.25 0
0.3125 0.375 0
0.25 0.5 0
0.1875 0.625 0
0.125 0.75 0
0.0625 0.875 0
0 1 0
0.625 0 0
0.546875 0.125 0
0.46875 0.25 0
0.390625 0.375 0
0.3125 0.5 0
0.234375 0.625 0
0.15625 0.75 0
0.078125 0.875 0
0 1 0
0.75 0 0
0.65625 0.125 0
0.5625 0.25 0
0.46875 0.375 0
0.375 0.5 0
0.28125 0.625 0
0.1875 0.75 0
0.09375 0.875 0
0 1 0
0.875 0 0
0.765625 0.125 0
0.65625 0.25 0
0.546875 0.375 0
0.4375 0.5 0
0.328125 0.625 0
0.21875 0.75 0
0.109375 0.875 0
0 1 0
1 0 0
0.875 0.125 0
0.75 0.25 0
0.625 0.375 0
0.5 0.5 0
0.375 0.625 0
0.25 0.75 0
0.125 0.875 0
0 1 0

CELLS 64 320
4 0 9 10 1
4 1 10 11 2
4 2 11 12 3
4 3 12 13 4
4 4 13 14 5
4 5 14 15 6
4 6 15 16 7
4 7 16 17 8
4 9 18 19 10
4 10 19 20 11
4 11 20 21 12
4 12 21 22 13
4 13 22 23 14
4 14 23 24 15
4 15 24 25 16
4 16 25 26 17
4 18 27 28 19
4 19 28 29 20
4 20 29 30 21
4 21 30 31 22
4 22 31 32 23
4 23 32 33 24
4 24 33 34 25
4 25 34 35 26
4 27 36 37 28
4 28 37 38 29
4 29 38 39 30
4 30 39 40 31
4 31 40 41 32
4 32 41 42 33
4 33 42 43 34
4 34 43 44 35
4 36 45 46 37
4 37 46 47 38
4 38 47 48 39
4 39 48 49 40
4 40 49 50 41
4 41 50 51 42
4 42 51 52 43
4 43 52 53 44
4 45 54 55 46
4 46 55 56 47
4 47 56 57 48
4 48 57 58 49
4 49 58 59 50
4 50 59 60 51
4 51 60 61 52
4 52 61 62 53
4 54 63 64 55
4 55 64 65 56
4 56 65 66 57
4 57 66 67 58
4 58 67 68 59
4 59 68 69 60
4 60 69 70 61
4 61 70 71 62
4 63 72 73 64
4 64 73 74 65
4 65 74 75 66
4 66 75 76 67
4 67 76 77 68
4 68 77 78 69
4 69 78 79 70
4 70 79 80 71

CELL_TYPES 64
9
9
9
9
9
9
9
9
9
9
9
9
9
9
9
9
9
9
9
9
9
9
9
9
9
9
9
9
9
9
9
9
9
9
9
9
9
9
9
9
9
9
9
9
9
9
9
9
9
9
9
9
9
9
9
9
9
9
9
9
9
9
9
9

POINT_DATA 81
SCALARS State float
LOOKUP_TABLE default
0 
0 
0 
0 
0 
0 
0 
0 
0 
0 
0.000854492 
0.0146484 
0.03479 
0.0546875 
0.067749 
0.0673828 
0.0469971 
0 
0 
-0.0102539 
0.0117188 
0.0512695 
0.09375 
0.124512 
0.128906 
0.0922852 
0 
0 
-0.0333252 
-0.00878906 
0.0494385 
0.117188 
0.170288 
0.18457 
0.135864 
0 
0 
-0.0683594 
-0.046875 
0.0292969 
0.125 
0.205078 
0.234375 
0.177734 
0 
0 
-0.115356 
-0.102539 
-0.00915527 
0.117188 
0.228882 
0.27832 
0.217896 
0 
0 
-0.174316 
-0.175781 
-0.065918 
0.09375 
0.241699 
0.316406 
0.256348 
0 
0 
-0.245239 
-0.266602 
-0.140991 
0.0546875 
0.24353 
0.348633 
0.293091 
0 
0 
-0.328125 
-0.375 
-0.234375 
0 
0.234375 
0.375 
0.328125 
0 

