# vtk DataFile Version 3.0
TPZGeoMesh VTK Visualization
ASCII

DATASET UNSTRUCTURED_GRID
POINTS 28 float
-0.125 -1 0 
1 -1 0 
1 1 0 
0.875 1 0 
-1 -1 0 
-0.96875 -1 0 
-0.15625 1 0 
-1 1 0 
-0.96875 -1 0 
-0.875 -1 0 
0.125 1 0 
-0.15625 1 0 
-0.875 -1 0 
-0.78125 -1 0 
0.40625 1 0 
0.125 1 0 
-0.78125 -1 0 
-0.5 -1 0 
0.5 1 0 
0.40625 1 0 
-0.5 -1 0 
-0.40625 -1 0 
0.78125 1 0 
0.5 1 0 
-0.40625 -1 0 
-0.125 -1 0 
0.875 1 0 
0.78125 1 0 

CELLS 7 35
4 0 1 2 3
4 4 5 6 7
4 8 9 10 11
4 12 13 14 15
4 16 17 18 19
4 20 21 22 23
4 24 25 26 27

CELL_TYPES 7
9
9
9
9
9
9
9

CELL_DATA 7
FIELD FieldData 2
material 1 7 int
0
0
0
0
0
0
0
elIndex 1 7 int
6
7
8
9
10
11
12
