# vtk DataFile Version 3.0
TPZGeoMesh VTK Visualization
ASCII

DATASET UNSTRUCTURED_GRID
POINTS 2404 float
-0.95829 -1 0 
-0.957672 -1 0 
0.0489197 1 0 
0.0470657 1 0 
-0.957672 -1 0 
-0.957054 -1 0 
0.0507736 1 0 
0.0489197 1 0 
-0.957054 -1 0 
-0.9552 -1 0 
0.0513916 1 0 
0.0507736 1 0 
-0.9552 -1 0 
-0.954582 -1 0 
0.0532455 1 0 
0.0513916 1 0 
-0.954582 -1 0 
-0.952728 -1 0 
0.0538635 1 0 
0.0532455 1 0 
-0.952728 -1 0 
-0.950874 -1 0 
0.0544815 1 0 
0.0538635 1 0 
-0.950874 -1 0 
-0.945312 -1 0 
0.0546875 1 0 
0.0544815 1 0 
-0.945312 -1 0 
-0.945244 -1 0 
0.071373 1 0 
0.0546875 1 0 
-0.945244 -1 0 
-0.945038 -1 0 
0.0769348 1 0 
0.071373 1 0 
-0.945038 -1 0 
-0.944832 -1 0 
0.0824966 1 0 
0.0769348 1 0 
-0.944832 -1 0 
-0.944214 -1 0 
0.0843506 1 0 
0.0824966 1 0 
-0.944214 -1 0 
-0.944008 -1 0 
0.0899124 1 0 
0.0843506 1 0 
-0.944008 -1 0 
-0.94339 -1 0 
0.0917664 1 0 
0.0899124 1 0 
-0.94339 -1 0 
-0.942772 -1 0 
0.0936203 1 0 
0.0917664 1 0 
-0.942772 -1 0 
-0.940918 -1 0 
0.0942383 1 0 
0.0936203 1 0 
-0.940918 -1 0 
-0.940712 -1 0 
0.0998001 1 0 
0.0942383 1 0 
-0.940712 -1 0 
-0.940094 -1 0 
0.101654 1 0 
0.0998001 1 0 
-0.940094 -1 0 
-0.939476 -1 0 
0.103508 1 0 
0.101654 1 0 
-0.939476 -1 0 
-0.937622 -1 0 
0.104126 1 0 
0.103508 1 0 
-0.937622 -1 0 
-0.937004 -1 0 
0.10598 1 0 
0.104126 1 0 
-0.937004 -1 0 
-0.93515 -1 0 
0.106598 1 0 
0.10598 1 0 
-0.93515 -1 0 
-0.933296 -1 0 
0.107216 1 0 
0.106598 1 0 
-0.933296 -1 0 
-0.927734 -1 0 
0.107422 1 0 
0.107216 1 0 
-0.927734 -1 0 
-0.927528 -1 0 
0.112984 1 0 
0.107422 1 0 
-0.927528 -1 0 
-0.92691 -1 0 
0.114838 1 0 
0.112984 1 0 
-0.92691 -1 0 
-0.926292 -1 0 
0.116692 1 0 
0.114838 1 0 
-0.926292 -1 0 
-0.924438 -1 0 
0.11731 1 0 
0.116692 1 0 
-0.924438 -1 0 
-0.92382 -1 0 
0.119164 1 0 
0.11731 1 0 
-0.92382 -1 0 
-0.921967 -1 0 
0.119781 1 0 
0.119164 1 0 
-0.921967 -1 0 
-0.920113 -1 0 
0.120399 1 0 
0.119781 1 0 
-0.920113 -1 0 
-0.914551 -1 0 
0.120605 1 0 
0.120399 1 0 
-0.914551 -1 0 
-0.913933 -1 0 
0.122459 1 0 
0.120605 1 0 
-0.913933 -1 0 
-0.912079 -1 0 
0.123077 1 0 
0.122459 1 0 
-0.912079 -1 0 
-0.910225 -1 0 
0.123695 1 0 
0.123077 1 0 
-0.910225 -1 0 
-0.904663 -1 0 
0.123901 1 0 
0.123695 1 0 
-0.904663 -1 0 
-0.902809 -1 0 
0.124519 1 0 
0.123901 1 0 
-0.902809 -1 0 
-0.897247 -1 0 
0.124725 1 0 
0.124519 1 0 
-0.897247 -1 0 
-0.891685 -1 0 
0.124931 1 0 
0.124725 1 0 
-0.891685 -1 0 
-0.875 -1 0 
0.125 1 0 
0.124931 1 0 
-0.875 -1 0 
-0.874977 -1 0 
0.175056 1 0 
0.125 1 0 
-0.874977 -1 0 
-0.874908 -1 0 
0.191742 1 0 
0.175056 1 0 
-0.874908 -1 0 
-0.87484 -1 0 
0.208427 1 0 
0.191742 1 0 
-0.87484 -1 0 
-0.874634 -1 0 
0.213989 1 0 
0.208427 1 0 
-0.874634 -1 0 
-0.874565 -1 0 
0.230675 1 0 
0.213989 1 0 
-0.874565 -1 0 
-0.874359 -1 0 
0.236237 1 0 
0.230675 1 0 
-0.874359 -1 0 
-0.874153 -1 0 
0.241798 1 0 
0.236237 1 0 
-0.874153 -1 0 
-0.873535 -1 0 
0.243652 1 0 
0.241798 1 0 
-0.873535 -1 0 
-0.873466 -1 0 
0.260338 1 0 
0.243652 1 0 
-0.873466 -1 0 
-0.87326 -1 0 
0.2659 1 0 
0.260338 1 0 
-0.87326 -1 0 
-0.873055 -1 0 
0.271461 1 0 
0.2659 1 0 
-0.873055 -1 0 
-0.872437 -1 0 
0.273315 1 0 
0.271461 1 0 
-0.872437 -1 0 
-0.872231 -1 0 
0.278877 1 0 
0.273315 1 0 
-0.872231 -1 0 
-0.871613 -1 0 
0.280731 1 0 
0.278877 1 0 
-0.871613 -1 0 
-0.870995 -1 0 
0.282585 1 0 
0.280731 1 0 
-0.870995 -1 0 
-0.869141 -1 0 
0.283203 1 0 
0.282585 1 0 
-0.869141 -1 0 
-0.869072 -1 0 
0.299889 1 0 
0.283203 1 0 
-0.869072 -1 0 
-0.868866 -1 0 
0.30545 1 0 
0.299889 1 0 
-0.868866 -1 0 
-0.86866 -1 0 
0.311012 1 0 
0.30545 1 0 
-0.86866 -1 0 
-0.868042 -1 0 
0.312866 1 0 
0.311012 1 0 
-0.868042 -1 0 
-0.867836 -1 0 
0.318428 1 0 
0.312866 1 0 
-0.867836 -1 0 
-0.867218 -1 0 
0.320282 1 0 
0.318428 1 0 
-0.867218 -1 0 
-0.8666 -1 0 
0.322136 1 0 
0.320282 1 0 
-0.8666 -1 0 
-0.864746 -1 0 
0.322754 1 0 
0.322136 1 0 
-0.864746 -1 0 
-0.86454 -1 0 
0.328316 1 0 
0.322754 1 0 
-0.86454 -1 0 
-0.863922 -1 0 
0.33017 1 0 
0.328316 1 0 
-0.863922 -1 0 
-0.863304 -1 0 
0.332024 1 0 
0.33017 1 0 
-0.863304 -1 0 
-0.86145 -1 0 
0.332642 1 0 
0.332024 1 0 
-0.86145 -1 0 
-0.860832 -1 0 
0.334496 1 0 
0.332642 1 0 
-0.860832 -1 0 
-0.858978 -1 0 
0.335114 1 0 
0.334496 1 0 
-0.858978 -1 0 
-0.857124 -1 0 
0.335732 1 0 
0.335114 1 0 
-0.857124 -1 0 
-0.851562 -1 0 
0.335938 1 0 
0.335732 1 0 
-0.851562 -1 0 
-0.851494 -1 0 
0.352623 1 0 
0.335938 1 0 
-0.851494 -1 0 
-0.851288 -1 0 
0.358185 1 0 
0.352623 1 0 
-0.851288 -1 0 
-0.851082 -1 0 
0.363747 1 0 
0.358185 1 0 
-0.851082 -1 0 
-0.850464 -1 0 
0.365601 1 0 
0.363747 1 0 
-0.850464 -1 0 
-0.850258 -1 0 
0.371162 1 0 
0.365601 1 0 
-0.850258 -1 0 
-0.84964 -1 0 
0.373016 1 0 
0.371162 1 0 
-0.84964 -1 0 
-0.849022 -1 0 
0.37487 1 0 
0.373016 1 0 
-0.849022 -1 0 
-0.847168 -1 0 
0.375488 1 0 
0.37487 1 0 
-0.847168 -1 0 
-0.846962 -1 0 
0.38105 1 0 
0.375488 1 0 
-0.846962 -1 0 
-0.846344 -1 0 
0.382904 1 0 
0.38105 1 0 
-0.846344 -1 0 
-0.845726 -1 0 
0.384758 1 0 
0.382904 1 0 
-0.845726 -1 0 
-0.843872 -1 0 
0.385376 1 0 
0.384758 1 0 
-0.843872 -1 0 
-0.843254 -1 0 
0.38723 1 0 
0.385376 1 0 
-0.843254 -1 0 
-0.8414 -1 0 
0.387848 1 0 
0.38723 1 0 
-0.8414 -1 0 
-0.839546 -1 0 
0.388466 1 0 
0.387848 1 0 
-0.839546 -1 0 
-0.833984 -1 0 
0.388672 1 0 
0.388466 1 0 
-0.833984 -1 0 
-0.833778 -1 0 
0.394234 1 0 
0.388672 1 0 
-0.833778 -1 0 
-0.83316 -1 0 
0.396088 1 0 
0.394234 1 0 
-0.83316 -1 0 
-0.832542 -1 0 
0.397942 1 0 
0.396088 1 0 
-0.832542 -1 0 
-0.830688 -1 0 
0.39856 1 0 
0.397942 1 0 
-0.830688 -1 0 
-0.83007 -1 0 
0.400414 1 0 
0.39856 1 0 
-0.83007 -1 0 
-0.828217 -1 0 
0.401031 1 0 
0.400414 1 0 
-0.828217 -1 0 
-0.826363 -1 0 
0.401649 1 0 
0.401031 1 0 
-0.826363 -1 0 
-0.820801 -1 0 
0.401855 1 0 
0.401649 1 0 
-0.820801 -1 0 
-0.820183 -1 0 
0.403709 1 0 
0.401855 1 0 
-0.820183 -1 0 
-0.818329 -1 0 
0.404327 1 0 
0.403709 1 0 
-0.818329 -1 0 
-0.816475 -1 0 
0.404945 1 0 
0.404327 1 0 
-0.816475 -1 0 
-0.810913 -1 0 
0.405151 1 0 
0.404945 1 0 
-0.810913 -1 0 
-0.809059 -1 0 
0.405769 1 0 
0.405151 1 0 
-0.809059 -1 0 
-0.803497 -1 0 
0.405975 1 0 
0.405769 1 0 
-0.803497 -1 0 
-0.797935 -1 0 
0.406181 1 0 
0.405975 1 0 
-0.797935 -1 0 
-0.78125 -1 0 
0.40625 1 0 
0.406181 1 0 
-0.78125 -1 0 
-0.781181 -1 0 
0.422935 1 0 
0.40625 1 0 
-0.781181 -1 0 
-0.780975 -1 0 
0.428497 1 0 
0.422935 1 0 
-0.780975 -1 0 
-0.780769 -1 0 
0.434059 1 0 
0.428497 1 0 
-0.780769 -1 0 
-0.780151 -1 0 
0.435913 1 0 
0.434059 1 0 
-0.780151 -1 0 
-0.779945 -1 0 
0.441475 1 0 
0.435913 1 0 
-0.779945 -1 0 
-0.779327 -1 0 
0.443329 1 0 
0.441475 1 0 
-0.779327 -1 0 
-0.778709 -1 0 
0.445183 1 0 
0.443329 1 0 
-0.778709 -1 0 
-0.776855 -1 0 
0.445801 1 0 
0.445183 1 0 
-0.776855 -1 0 
-0.776649 -1 0 
0.451363 1 0 
0.445801 1 0 
-0.776649 -1 0 
-0.776031 -1 0 
0.453217 1 0 
0.451363 1 0 
-0.776031 -1 0 
-0.775414 -1 0 
0.45507 1 0 
0.453217 1 0 
-0.775414 -1 0 
-0.77356 -1 0 
0.455688 1 0 
0.45507 1 0 
-0.77356 -1 0 
-0.772942 -1 0 
0.457542 1 0 
0.455688 1 0 
-0.772942 -1 0 
-0.771088 -1 0 
0.45816 1 0 
0.457542 1 0 
-0.771088 -1 0 
-0.769234 -1 0 
0.458778 1 0 
0.45816 1 0 
-0.769234 -1 0 
-0.763672 -1 0 
0.458984 1 0 
0.458778 1 0 
-0.763672 -1 0 
-0.763466 -1 0 
0.464546 1 0 
0.458984 1 0 
-0.763466 -1 0 
-0.762848 -1 0 
0.4664 1 0 
0.464546 1 0 
-0.762848 -1 0 
-0.76223 -1 0 
0.468254 1 0 
0.4664 1 0 
-0.76223 -1 0 
-0.760376 -1 0 
0.468872 1 0 
0.468254 1 0 
-0.760376 -1 0 
-0.759758 -1 0 
0.470726 1 0 
0.468872 1 0 
-0.759758 -1 0 
-0.757904 -1 0 
0.471344 1 0 
0.470726 1 0 
-0.757904 -1 0 
-0.75605 -1 0 
0.471962 1 0 
0.471344 1 0 
-0.75605 -1 0 
-0.750488 -1 0 
0.472168 1 0 
0.471962 1 0 
-0.750488 -1 0 
-0.74987 -1 0 
0.474022 1 0 
0.472168 1 0 
-0.74987 -1 0 
-0.748016 -1 0 
0.47464 1 0 
0.474022 1 0 
-0.748016 -1 0 
-0.746162 -1 0 
0.475258 1 0 
0.47464 1 0 
-0.746162 -1 0 
-0.740601 -1 0 
0.475464 1 0 
0.475258 1 0 
-0.740601 -1 0 
-0.738747 -1 0 
0.476082 1 0 
0.475464 1 0 
-0.738747 -1 0 
-0.733185 -1 0 
0.476288 1 0 
0.476082 1 0 
-0.733185 -1 0 
-0.727623 -1 0 
0.476494 1 0 
0.476288 1 0 
-0.727623 -1 0 
-0.710938 -1 0 
0.476562 1 0 
0.476494 1 0 
-0.710938 -1 0 
-0.710732 -1 0 
0.482124 1 0 
0.476562 1 0 
-0.710732 -1 0 
-0.710114 -1 0 
0.483978 1 0 
0.482124 1 0 
-0.710114 -1 0 
-0.709496 -1 0 
0.485832 1 0 
0.483978 1 0 
-0.709496 -1 0 
-0.707642 -1 0 
0.48645 1 0 
0.485832 1 0 
-0.707642 -1 0 
-0.707024 -1 0 
0.488304 1 0 
0.48645 1 0 
-0.707024 -1 0 
-0.70517 -1 0 
0.488922 1 0 
0.488304 1 0 
-0.70517 -1 0 
-0.703316 -1 0 
0.48954 1 0 
0.488922 1 0 
-0.703316 -1 0 
-0.697754 -1 0 
0.489746 1 0 
0.48954 1 0 
-0.697754 -1 0 
-0.697136 -1 0 
0.4916 1 0 
0.489746 1 0 
-0.697136 -1 0 
-0.695282 -1 0 
0.492218 1 0 
0.4916 1 0 
-0.695282 -1 0 
-0.693428 -1 0 
0.492836 1 0 
0.492218 1 0 
-0.693428 -1 0 
-0.687866 -1 0 
0.493042 1 0 
0.492836 1 0 
-0.687866 -1 0 
-0.686012 -1 0 
0.49366 1 0 
0.493042 1 0 
-0.686012 -1 0 
-0.68045 -1 0 
0.493866 1 0 
0.49366 1 0 
-0.68045 -1 0 
-0.674889 -1 0 
0.494072 1 0 
0.493866 1 0 
-0.674889 -1 0 
-0.658203 -1 0 
0.494141 1 0 
0.494072 1 0 
-0.658203 -1 0 
-0.657585 -1 0 
0.495995 1 0 
0.494141 1 0 
-0.657585 -1 0 
-0.655731 -1 0 
0.496613 1 0 
0.495995 1 0 
-0.655731 -1 0 
-0.653877 -1 0 
0.497231 1 0 
0.496613 1 0 
-0.653877 -1 0 
-0.648315 -1 0 
0.497437 1 0 
0.497231 1 0 
-0.648315 -1 0 
-0.646461 -1 0 
0.498055 1 0 
0.497437 1 0 
-0.646461 -1 0 
-0.6409 -1 0 
0.49826 1 0 
0.498055 1 0 
-0.6409 -1 0 
-0.635338 -1 0 
0.498466 1 0 
0.49826 1 0 
-0.635338 -1 0 
-0.618652 -1 0 
0.498535 1 0 
0.498466 1 0 
-0.618652 -1 0 
-0.616798 -1 0 
0.499153 1 0 
0.498535 1 0 
-0.616798 -1 0 
-0.611237 -1 0 
0.499359 1 0 
0.499153 1 0 
-0.611237 -1 0 
-0.605675 -1 0 
0.499565 1 0 
0.499359 1 0 
-0.605675 -1 0 
-0.588989 -1 0 
0.499634 1 0 
0.499565 1 0 
-0.588989 -1 0 
-0.583427 -1 0 
0.49984 1 0 
0.499634 1 0 
-0.583427 -1 0 
-0.566742 -1 0 
0.499908 1 0 
0.49984 1 0 
-0.566742 -1 0 
-0.550056 -1 0 
0.499977 1 0 
0.499908 1 0 
[...]
CELL_DATA 601
FIELD FieldData 2
material 1 601 int
0
0
0
0
0
0
0
0
0
0
0
0
0
0
0
0
0
0
0
0
0
0
0
0
0
0
0
0
0
0
0
0
0
0
0
0
0
0
0
0
0
0
0
0
0
0
0
0
0
0
0
0
0
0
0
0
0
0
0
0
0
0
0
0
0
0
0
0
0
0
0
0
0
0
0
0
0
0
0
0
0
0
0
0
0
0
0
0
0
0
0
0
0
0
0
0
0
0
0
0
0
0
0
0
0
0
0
0
0
0
0
0
0
0
0
0
0
0
0
0
0
0
0
0
0
0
0
0
0
0
0
0
0
0
0
0
0
0
0
0
0
0
0
0
0
0
0
0
0
0
0
0
0
0
0
0
0
0
0
0
0
0
0
0
0
0
0
0
0
0
0
0
0
0
0
0
0
0
0
0
0
0
0
0
0
0
0
0
0
0
0
0
0
0
0
0
0
0
0
0
0
0
0
0
0
0
0
0
0
0
0
0
0
0
0
0
0
0
0
0
0
0
0
0
0
0
0
0
0
0
0
0
0
0
0
0
0
0
0
0
0
0
0
0
0
0
0
0
0
0
0
0
0
0
0
0
0
0
0
0
0
0
0
0
0
0
0
0
0
0
0
0
0
0
0
0
0
0
0
0
0
0
0
0
0
0
0
0
0
0
0
0
0
0
0
0
0
0
0
0
0
0
0
0
0
0
0
0
0
0
0
0
0
0
0
0
0
0
0
0
0
0
0
0
0
0
0
0
0
0
0
0
0
0
0
0
0
0
0
0
0
0
0
0
0
0
0
0
0
0
0
0
0
0
0
0
0
0
0
0
0
0
0
0
0
0
0
0
0
0
0
0
0
0
0
0
0
0
0
0
0
0
0
0
0
0
0
0
0
0
0
0
0
0
0
0
0
0
0
0
0
0
0
0
0
0
0
0
0
0
0
0
0
0
0
0
0
0
0
0
0
0
0
0
0
0
0
0
0
0
0
0
0
0
0
0
0
0
0
0
0
0
0
0
0
0
0
0
0
0
0
0
0
0
0
0
0
0
0
0
0
0
0
0
0
0
0
0
0
0
0
0
0
0
0
0
0
0
0
0
0
0
0
0
0
0
0
0
0
0
0
0
0
0
0
0
0
0
0
0
0
0
0
0
0
0
0
0
0
0
0
0
0
0
0
0
0
0
0
0
0
0
0
0
0
0
0
0
0
0
0
0
0
0
0
0
0
0
0
0
0
0
0
0
0
0
0
0
0
0
0
0
0
0
0
0
0
0
0
0
0
0
0
0
0
0
0
0
0
0
0
0
0
0
0
0
0
0
0
0
0
0
0
0
0
0
0
0
0
0
0
0
0
0
0
0
0
0
0
0
0
elIndex 1 601 int
600
601
602
603
604
605
606
607
608
609
610
611
612
613
614
615
616
617
618
619
620
621
622
623
624
625
626
627
628
629
630
631
632
633
634
635
636
637
638
639
640
641
642
643
644
645
646
647
648
649
650
651
652
653
654
655
656
657
658
659
660
661
662
663
664
665
666
667
668
669
670
671
672
673
674
675
676
677
678
679
680
681
682
683
684
685
686
687
688
689
690
691
692
693
694
695
696
697
698
699
700
701
702
703
704
705
706
707
708
709
710
711
712
713
714
715
716
717
718
719
720
721
722
723
724
725
726
727
728
729
730
731
732
733
734
735
736
737
738
739
740
741
742
743
744
745
746
747
748
749
750
751
752
753
754
755
756
757
758
759
760
761
762
763
764
765
766
767
768
769
770
771
772
773
774
775
776
777
778
779
780
781
782
783
784
785
786
787
788
789
790
791
792
793
794
795
796
797
798
799
800
801
802
803
804
805
806
807
808
809
810
811
812
813
814
815
816
817
818
819
820
821
822
823
824
825
826
827
828
829
830
831
832
833
834
835
836
837
838
839
840
841
842
843
844
845
846
847
848
849
850
851
852
853
854
855
856
857
858
859
860
861
862
863
864
865
866
867
868
869
870
871
872
873
874
875
876
877
878
879
880
881
882
883
884
885
886
887
888
889
890
891
892
893
894
895
896
897
898
899
900
901
902
903
904
905
906
907
908
909
910
911
912
913
914
915
916
917
918
919
920
921
922
923
924
925
926
927
928
929
930
931
932
933
934
935
936
937
938
939
940
941
942
943
944
945
946
947
948
949
950
951
952
953
954
955
956
957
958
959
960
961
962
963
964
965
966
967
968
969
970
971
972
973
974
975
976
977
978
979
980
981
982
983
984
985
986
987
988
989
990
991
992
993
994
995
996
997
998
999
1000
1001
1002
1003
1004
1005
1006
1007
1008
1009
1010
1011
1012
1013
1014
1015
1016
1017
1018
1019
1020
1021
1022
1023
1024
1025
1026
1027
1028
1029
1030
1031
1032
1033
1034
1035
1036
1037
1038
1039
1040
1041
1042
1043
1044
1045
1046
1047
1048
1049
1050
1051
1052
1053
1054
1055
1056
1057
1058
1059
1060
1061
1062
1063
1064
1065
1066
1067
1068
1069
1070
1071
1072
1073
1074
1075
1076
1077
1078
1079
1080
1081
1082
1083
1084
1085
1086
1087
1088
1089
1090
1091
1092
1093
1094
1095
1096
1097
1098
1099
1100
1101
1102
1103
1104
1105
1106
1107
1108
1109
1110
1111
1112
1113
1114
1115
1116
1117
1118
1119
1120
1121
1122
1123
1124
1125
1126
1127
1128
1129
1130
1131
1132
1133
1134
1135
1136
1137
1138
1139
1140
1141
1142
1143
1144
1145
1146
1147
1148
1149
1150
1151
1152
1153
1154
1155
1156
1157
1158
1159
1160
1161
1162
1163
1164
1165
1166
1167
1168
1169
1170
1171
1172
1173
1174
1175
1176
1177
1178
1179
1180
1181
1182
1183
1184
1185
1186
1187
1188
1189
1190
1191
1192
1193
1194
1195
1196
1197
1198
1199
1200
