# vtk DataFile Version 3.0
TPZGeoMesh VTK Visualization
ASCII

DATASET UNSTRUCTURED_GRID
POINTS 12 float
-1 -1 0 
1 -1 0 
1 1 0 
-1 1 0 
-1 -1 0 
-0.5 -1 0 
0.5 1 0 
-1 1 0 
-0.5 -1 0 
1 -1 0 
1 1 0 
0.5 1 0 

CELLS 3 15
4 0 1 2 3
4 4 5 6 7
4 8 9 10 11

CELL_TYPES 3
9
9
9

CELL_DATA 3
FIELD FieldData 2
material 1 3 int
0
0
0
elIndex 1 3 int
0
1
2
