# vtk DataFile Version 3.0
TPZGeoMesh VTK Visualization
ASCII

DATASET UNSTRUCTURED_GRID
POINTS 51 float
0.25 0.5 0 
0 0.5 0 
0.25 0 0 
0.5 0 0 
0.75 0 0 
0.25 0.5 0 
0.75 0 0 
1 0 0 
0.5 0.5 0 
0.25 0.5 0 
0.5 0.5 0 
0 1 0 
0.5 0.5 0 
0.25 0.5 0 
0.75 0 0 
0 0 0 
0.125 0 0 
0 0.25 0 
0.125 0 0 
0.25 0 0 
0.125 0.25 0 
0 0.25 0 
0.125 0.25 0 
0 0.5 0 
0.125 0.25 0 
0 0.25 0 
0.125 0 0 
0.25 0 0 
0.375 0 0 
0.25 0.25 0 
0.375 0 0 
0.5 0 0 
0.375 0.25 0 
0.25 0.25 0 
0.375 0.25 0 
0.25 0.5 0 
0.375 0.25 0 
0.25 0.25 0 
0.375 0 0 
0 0.5 0 
0.125 0.5 0 
0 0.75 0 
0.125 0.5 0 
0.25 0.5 0 
0.125 0.75 0 
0 0.75 0 
0.125 0.75 0 
0 1 0 
0.125 0.75 0 
0 0.75 0 
0.125 0.5 0 

CELLS 17 68
3 0 1 2
3 3 4 5
3 6 7 8
3 9 10 11
3 12 13 14
3 15 16 17
3 18 19 20
3 21 22 23
3 24 25 26
3 27 28 29
3 30 31 32
3 33 34 35
3 36 37 38
3 39 40 41
3 42 43 44
3 45 46 47
3 48 49 50

CELL_TYPES 17
5
5
5
5
5
5
5
5
5
5
5
5
5
5
5
5
5

CELL_DATA 17
FIELD FieldData 2
material 1 17 int
0
0
0
0
0
0
0
0
0
0
0
0
0
0
0
0
0
elIndex 1 17 int
6
7
8
9
10
11
12
13
14
15
16
17
18
19
20
21
22
