# vtk DataFile Version 3.0
TPZGeoMesh VTK Visualization
ASCII

DATASET UNSTRUCTURED_GRID
POINTS 9 float
0 0 0 
1 0 0 
0 1 0 
0 0 0 
1 0 0 
0.5 0.5 0 
0 0 0 
0.5 0.5 0 
0 1 0 

CELLS 3 12
3 0 1 2
3 3 4 5
3 6 7 8

CELL_TYPES 3
5
5
5

CELL_DATA 3
FIELD FieldData 2
material 1 3 int
0
0
0
elIndex 1 3 int
0
1
2
