# vtk DataFile Version 3.0
TPZGeoMesh VTK Visualization
ASCII

DATASET UNSTRUCTURED_GRID
POINTS 33 float
0 0 0 
0.625 0.375 0 
0.5 0.5 0 
0 0 0 
0.5 0.5 0 
0.375 0.625 0 
0 0 0 
0.375 0.625 0 
0.25 0.75 0 
0 0 0 
0.25 0.75 0 
0.125 0.875 0 
0 0 0 
0.125 0.875 0 
0 1 0 
0 0 0 
1 0 0 
0.9375 0.0625 0 
0 0 0 
0.9375 0.0625 0 
0.875 0.125 0 
0 0 0 
0.875 0.125 0 
0.8125 0.1875 0 
0 0 0 
0.8125 0.1875 0 
0.75 0.25 0 
0 0 0 
0.75 0.25 0 
0.6875 0.3125 0 
0 0 0 
0.6875 0.3125 0 
0.625 0.375 0 

CELLS 11 44
3 0 1 2
3 3 4 5
3 6 7 8
3 9 10 11
3 12 13 14
3 15 16 17
3 18 19 20
3 21 22 23
3 24 25 26
3 27 28 29
3 30 31 32

CELL_TYPES 11
5
5
5
5
5
5
5
5
5
5
5

CELL_DATA 11
FIELD FieldData 2
material 1 11 int
0
0
0
0
0
0
0
0
0
0
0
elIndex 1 11 int
10
11
12
13
14
15
16
17
18
19
20
